 Gaussian 16, Revision C.01,
 Gaussian 16:  ES64L-G16RevC.01  3-Jul-2019

 ----------------------------------------------------------------------
 #P wb97xd/def2svp # SCF=(xqc) # POpt=(CALCFC,TS,NOEIGEN,MAXCYCLES=60)
 # int=ultrafine
 ----------------------------------------------------------------------

 --------
 comment:
 --------
 Symbolic Z-matrix:
 Charge =  0 Multiplicity = 2

 SCF Done:  E(UwB97XD) =  -270.781314002     A.U. after   22 cycles

  Exact polarizability:       0.000       0.000       0.000       0.000       0.000       0.000
 Approx polarizability:      66.268      -4.921      66.411      -6.792       1.242      60.864

 SCF Done:  E(UwB97XD) =  -270.781273495     A.U. after   22 cycles
 SCF Done:  E(UwB97XD) =  -270.780992274     A.U. after   22 cycles
 SCF Done:  E(UwB97XD) =  -270.780618402     A.U. after   23 cycles
 SCF Done:  E(UwB97XD) =  -270.780797217     A.U. after   22 cycles
 SCF Done:  E(UwB97XD) =  -270.780909010     A.U. after   23 cycles
 SCF Done:  E(UwB97XD) =  -270.780888787     A.U. after   22 cycles
 SCF Done:  E(UwB97XD) =  -270.780925944     A.U. after   23 cycles
 SCF Done:  E(UwB97XD) =  -270.780931029     A.U. after   22 cycles
 SCF Done:  E(UwB97XD) =  -270.780932023     A.U. after   18 cycles
 SCF Done:  E(UwB97XD) =  -270.780933015     A.U. after   15 cycles
 SCF Done:  E(UwB97XD) =  -270.780933342     A.U. after   15 cycles
 SCF Done:  E(UwB97XD) =  -270.780933027     A.U. after   17 cycles
 SCF Done:  E(UwB97XD) =  -270.780933401     A.U. after   17 cycles
 Optimization completed.
    -- Stationary point found.

                         Standard orientation:
 ---------------------------------------------------------------------
 Center     Atomic      Atomic             Coordinates (Angstroms)
 Number     Number       Type             X           Y           Z
 ---------------------------------------------------------------------
      1          6           0        0.354555   -0.674739    0.904029
      2          6           0        0.354776    0.674214    0.904270
      3          1           0        1.020329   -1.300880    1.502000
      4          6           0       -0.750827    1.228956    0.050504
      5          1           0        1.021019    1.299940    1.502150
      6          6           0       -1.225818    0.000298   -0.752748
      7          1           0       -1.548298    1.641276    0.695828
      8          1           0       -0.405877    2.050397   -0.594821
      9          6           0       -0.751223   -1.228805    0.050054
     10          1           0       -2.309913    0.000505   -0.933711
     11          1           0       -0.720160    0.000397   -1.727875
     12          1           0       -1.548833   -1.641135    0.695201
     13          1           0       -0.406522   -2.050110   -0.595580
     14          8           0        1.805827    0.000055   -0.898517
     15          1           0        2.562856   -0.000377   -0.291712
 ---------------------------------------------------------------------

 The electronic state is 2-A.
 Alpha  occ. eigenvalues --  -19.25623 -10.31137 -10.31058 -10.29490 -10.29489
 Alpha  occ. eigenvalues --  -10.28807  -1.04032  -0.94172  -0.80249  -0.79911
 Alpha  occ. eigenvalues --   -0.66082  -0.62194  -0.59318  -0.56000  -0.50259
 Alpha  occ. eigenvalues --   -0.48352  -0.47264  -0.44923  -0.43786  -0.43179
 Alpha  occ. eigenvalues --   -0.42349  -0.41110  -0.37143  -0.30436
 Alpha virt. eigenvalues --    0.08250   0.13467   0.16451   0.18332   0.19045
 Alpha virt. eigenvalues --    0.20134   0.21256   0.21794   0.23564   0.25861
 Alpha virt. eigenvalues --    0.27755   0.27834   0.34972   0.39226   0.46352

  Beta  occ. eigenvalues --  -19.23731 -10.30951 -10.30875 -10.29500 -10.29500
  Beta  occ. eigenvalues --  -10.28805  -0.98386  -0.93555  -0.79810  -0.79789
  Beta  occ. eigenvalues --   -0.65935  -0.61919  -0.59131  -0.55579  -0.48228
  Beta  occ. eigenvalues --   -0.47945  -0.46656  -0.43661  -0.43207  -0.42336
  Beta  occ. eigenvalues --   -0.42130  -0.34656  -0.33105
  Beta virt. eigenvalues --   -0.01833   0.09634   0.13666   0.16636   0.18427
  Beta virt. eigenvalues --    0.19070   0.20574   0.21374   0.21857   0.23601
  Beta virt. eigenvalues --    0.26007   0.27809   0.27861   0.35024   0.39385

 Mulliken charges and spin densities:
               1          2
     1  C   -0.097201   0.104595
     2  C   -0.097163   0.104474
     3  H    0.032885  -0.005334
     4  C    0.018857  -0.005364
     5  H    0.032882  -0.005326
     6  C   -0.073193  -0.000299
     7  H    0.043126   0.003584
     8  H    0.047723   0.004164
     9  C    0.018850  -0.005374
    10  H    0.029739  -0.000387
    11  H    0.059220  -0.000332
    12  H    0.043124   0.003591
    13  H    0.047723   0.004167
    14  O   -0.272618   0.815650
    15  H    0.166046  -0.017810
 Sum of Mulliken charges =  -0.00000   1.00000

 Dipole moment (field-independent basis, Debye):
    X=              0.0483    Y=             -0.0006    Z=              1.6562  Tot=              1.6569
 Quadrupole moment (field-independent basis, Debye-Ang):
   XX=            -33.6910   YY=            -36.0676   ZZ=            -38.5496
   XY=             -0.0015   XZ=              3.1644   YZ=             -0.0000

 Normal termination of Gaussian 16 at Fri Aug 29 12:03:16 2025.
