 Gaussian 16, Revision C.01,
 Gaussian 16:  ES64L-G16RevC.01  3-Jul-2019

 ----------------------------------------------------------------------
 #P wb97xd/def2svp # SCF=(xqc) # POpt=(CALCFC,TS,NOEIGEN,MAXCYCLES=60)
 # int=ultrafine
 ----------------------------------------------------------------------

 --------
 comment:
 --------
 Symbolic Z-matrix:
 Charge =  0 Multiplicity = 2

 SCF Done:  E(UwB97XD) =  -344.557938695     A.U. after   23 cycles

 The electronic state is 2-A.
 Alpha  occ. eigenvalues --  -19.31663 -19.30617 -10.35699 -10.31446 -10.30641
 Alpha  occ. eigenvalues --  -10.30566 -10.30451  -1.22394  -1.01113  -0.91511
 Alpha  occ. eigenvalues --   -0.82364  -0.76785  -0.66051  -0.63468  -0.60904
 Alpha  occ. eigenvalues --   -0.59294  -0.55637  -0.55186  -0.50571  -0.48883
 Alpha  occ. eigenvalues --   -0.46926  -0.44631  -0.41157  -0.37597  -0.34728
 Alpha  occ. eigenvalues --   -0.33476  -0.27985
 Alpha virt. eigenvalues --    0.06506   0.08991   0.14287   0.14962   0.17190
 Alpha virt. eigenvalues --    0.17992   0.19268   0.21280   0.21711   0.24273
 Alpha virt. eigenvalues --    0.27580   0.33138   0.36492   0.42009   0.44572

  Beta  occ. eigenvalues --  -19.31628 -19.30678 -10.35995 -10.30627 -10.30567
  Beta  occ. eigenvalues --  -10.30283 -10.29916  -1.22490  -1.01181  -0.90579
  Beta  occ. eigenvalues --   -0.81036  -0.75975  -0.65572  -0.62898  -0.60025
  Beta  occ. eigenvalues --   -0.59144  -0.54853  -0.54657  -0.49715  -0.48252
  Beta  occ. eigenvalues --   -0.46634  -0.44255  -0.41071  -0.37094  -0.33559
  Beta  occ. eigenvalues --   -0.31893
  Beta virt. eigenvalues --    0.00030   0.08315   0.10512   0.14379   0.15116
  Beta virt. eigenvalues --    0.17416   0.18262   0.19558   0.21421   0.21907
  Beta virt. eigenvalues --    0.24426   0.27695   0.33870   0.36945   0.42436

 Mulliken charges and spin densities:
               1          2
     1  C   -0.116894  -0.112189
     2  C    0.055891  -0.012214
     3  H    0.050359   0.025219
     4  C   -0.083658   0.542974
     5  H    0.071653   0.001840
     6  H    0.044438  -0.001978
     7  C    0.129353  -0.242357
     8  H    0.045909  -0.023753
     9  C   -0.084428   0.820217
    10  O   -0.231908   0.008373
    11  H    0.034608   0.010990
    12  H    0.051685   0.000275
    13  O   -0.163482  -0.016996
    14  H    0.196476  -0.000399
 Sum of Mulliken charges =  -0.00000   1.00000

 Dipole moment (field-independent basis, Debye):
    X=             -0.1551    Y=              0.8439    Z=              0.6875  Tot=              1.0995
 Quadrupole moment (field-independent basis, Debye-Ang):
   XX=            -35.6332   YY=            -39.6025   ZZ=            -40.8638
   XY=              4.7049   XZ=              2.4067   YZ=             -0.1306

  Exact polarizability:       0.000       0.000       0.000       0.000       0.000       0.000
 Approx polarizability:      77.016       3.472      75.390       6.966       5.600      56.437

 Optimization completed.
    -- Stationary point found.

                         Standard orientation:
 ---------------------------------------------------------------------
 Center     Atomic      Atomic             Coordinates (Angstroms)
 Number     Number       Type             X           Y           Z
 ---------------------------------------------------------------------
      1          6           0       -1.847330    0.518172   -0.384762
      2          6           0       -1.382839   -0.924450   -0.543072
      3          1           0       -2.718813    0.877581   -0.947311
      4          6           0       -0.430105   -1.108241    0.600114
      5          1           0       -0.885958   -1.043128   -1.521571
      6          1           0       -2.222946   -1.633472   -0.509289
      7          6           0        0.548184   -0.160102    0.756823
      8          1           0       -0.769958   -1.629718    1.498553
      9          6           0       -1.147425    1.298979    0.419712
     10          8           0        1.165609    0.446257   -0.319369
     11          1           0        1.112248   -0.074928    1.693291
     12          1           0       -1.186787    2.349021    0.708261
     13          8           0        2.486328   -0.107909   -0.388431
     14          1           0        3.013799    0.701713   -0.352427
 ---------------------------------------------------------------------

 Normal termination of Gaussian 16 at Fri Aug 29 13:12:18 2025.
