 Gaussian 16, Revision C.01,
 Gaussian 16:  ES64L-G16RevC.01  3-Jul-2019

 ----------------------------------------------------------------------
 #P wb97xd/def2svp # SCF=(xqc) # POpt=(CALCFC,TS,NOEIGEN,MAXCYCLES=60)
 # int=ultrafine
 ----------------------------------------------------------------------

 --------
 comment:
 --------
 Symbolic Z-matrix:
 Charge =  0 Multiplicity = 2

 SCF Done:  E(UwB97XD) =  -344.577611749     A.U. after   25 cycles

  Exact polarizability:       0.000       0.000       0.000       0.000       0.000       0.000
 Approx polarizability:      93.452      -4.146      59.691     -11.347       4.982      66.201

 SCF Done:  E(UwB97XD) =  -344.577327874     A.U. after   25 cycles
 SCF Done:  E(UwB97XD) =  -344.577356368     A.U. after   25 cycles
 SCF Done:  E(UwB97XD) =  -344.577367917     A.U. after   21 cycles
 SCF Done:  E(UwB97XD) =  -344.577369227     A.U. after   16 cycles
 SCF Done:  E(UwB97XD) =  -344.577369178     A.U. after   14 cycles
 Optimization completed.
    -- Stationary point found.

                         Standard orientation:
 ---------------------------------------------------------------------
 Center     Atomic      Atomic             Coordinates (Angstroms)
 Number     Number       Type             X           Y           Z
 ---------------------------------------------------------------------
      1          6           0        1.195501   -0.400329   -0.793125
      2          6           0        1.004686   -1.155308    0.508220
      3          6           0        1.297064    1.014445   -0.442877
      4          1           0        1.533979   -0.834841   -1.736307
      5          6           0       -0.153808   -0.198152    0.788586
      6          1           0        0.660141   -2.189336    0.388035
      7          1           0        1.872541   -1.097132    1.185994
      8          8           0       -0.774754   -0.438771   -0.483248
      9          1           0       -0.837146   -0.362351    1.629947
     10          8           0       -2.432214    0.175382   -0.113372
     11          6           0        0.496906    1.173595    0.635157
     12          1           0        1.831829    1.774793   -1.011526
     13          1           0        0.251865    2.082196    1.182389
     14          1           0       -2.699559    0.128289   -1.041343
 ---------------------------------------------------------------------

 The electronic state is 2-A.
 Alpha  occ. eigenvalues --  -19.27611 -19.24815 -10.35955 -10.35399 -10.31487
 Alpha  occ. eigenvalues --  -10.31357 -10.31268  -1.11096  -1.02331  -0.92642
 Alpha  occ. eigenvalues --   -0.82143  -0.78396  -0.65937  -0.63191  -0.62854
 Alpha  occ. eigenvalues --   -0.57078  -0.51913  -0.50359  -0.49439  -0.47184
 Alpha  occ. eigenvalues --   -0.46103  -0.45513  -0.42545  -0.40008  -0.36438
 Alpha  occ. eigenvalues --   -0.32117  -0.27194
 Alpha virt. eigenvalues --    0.00792   0.09018   0.14787   0.17950   0.18722
 Alpha virt. eigenvalues --    0.19067   0.20223   0.21167   0.22096   0.26576
 Alpha virt. eigenvalues --    0.27900   0.28361   0.31291   0.37767   0.41778

  Beta  occ. eigenvalues --  -19.27856 -19.23363 -10.35382 -10.35358 -10.31478
  Beta  occ. eigenvalues --  -10.31378 -10.31173  -1.11150  -0.98741  -0.92113
  Beta  occ. eigenvalues --   -0.81623  -0.77562  -0.65426  -0.63102  -0.62186
  Beta  occ. eigenvalues --   -0.56017  -0.51261  -0.49837  -0.49175  -0.46793
  Beta  occ. eigenvalues --   -0.45231  -0.44282  -0.41122  -0.37434  -0.35086
  Beta  occ. eigenvalues --   -0.31333
  Beta virt. eigenvalues --   -0.01366   0.04532   0.11127   0.14985   0.18001
  Beta virt. eigenvalues --    0.19192   0.19463   0.20297   0.21329   0.22226
  Beta virt. eigenvalues --    0.26865   0.28197   0.28708   0.31608   0.38049

 Mulliken charges and spin densities:
               1          2
     1  C   -0.043223   0.501509
     2  C    0.056471  -0.032066
     3  C   -0.003018  -0.183352
     4  H    0.052725  -0.018904
     5  C    0.096418  -0.000574
     6  H    0.058596   0.000379
     7  H    0.051098   0.031219
     8  O   -0.323054  -0.177531
     9  H    0.048206  -0.002393
    10  O   -0.273025   0.619531
    11  C    0.026128   0.279095
    12  H    0.040610   0.008123
    13  H    0.040986  -0.012238
    14  H    0.171082  -0.012799
 Sum of Mulliken charges =  -0.00000   1.00000

 Dipole moment (field-independent basis, Debye):
    X=              2.5925    Y=              0.1285    Z=             -0.4619  Tot=              2.6364
 Quadrupole moment (field-independent basis, Debye-Ang):
   XX=            -41.9158   YY=            -39.0287   ZZ=            -37.1419
   XY=             -0.4161   XZ=              0.7877   YZ=             -0.0682

 1\1\GINC-CSED-0039\FTS\UwB97XD\def2SVP\C5H7O2(2)\COPAN\26-May-2025\1\\
 #P wb97xd/def2svp # SCF=(xqc) # POpt=(CALCFC,TS,NOEIGEN,MAXCYCLES=60)
 # int=ultrafine\\comment:\\0,2\C\C,1,R1\C,1,R2,2,A2\H,1,R3,2,A3,3,D3,0
 \C,2,R4,1,A4,3,D4,0\H,2,R5,1,A5,5,D5,0\H,2,R6,1,A6,5,D6,0\O,5,R7,2,A7,
 1,D7,0\H,5,R8,2,A8,8,D8,0\O,8,R9,5,A9,2,D9,0\C,3,R10,1,A10,2,D10,0\H,3
 ,R11,1,A11,11,D11,0\H,11,R12,3,A12,1,D12,0\H,10,R13,8,A13,5,D13,0\\R1=
 1.51654248\R2=1.46101837\R3=1.09222738\R5=1.09652606\R6=1.10269422\R8=
 1.09626662\R10=1.351939\R11=1.08970907\R12=1.08860635\R13=0.96686221\A
 2=106.56524888\A3=125.58774294\A5=114.51537171\A6=113.71217094\A8=121.

 Normal termination of Gaussian 16 at Mon May 26 12:55:02 2025.
