 Gaussian 16, Revision C.01,
 Gaussian 16:  ES64L-G16RevC.01  3-Jul-2019

 -------------------------------------------------------
 #P wb97xd/def2svp # SCF=(xqc) # POpt=() # int=ultrafine
 -------------------------------------------------------

 --------
 comment:
 --------
 Symbolic Z-matrix:
 Charge =  0 Multiplicity = 2

 SCF Done:  E(UwB97XD) =  -344.592588423     A.U. after   20 cycles
 SCF Done:  E(UwB97XD) =  -344.593466584     A.U. after   17 cycles
 SCF Done:  E(UwB97XD) =  -344.593656724     A.U. after   17 cycles
 SCF Done:  E(UwB97XD) =  -344.593667876     A.U. after   12 cycles
 SCF Done:  E(UwB97XD) =  -344.593674514     A.U. after   12 cycles
 SCF Done:  E(UwB97XD) =  -344.593678011     A.U. after   14 cycles
 SCF Done:  E(UwB97XD) =  -344.593678648     A.U. after   11 cycles
 SCF Done:  E(UwB97XD) =  -344.593678746     A.U. after   10 cycles
 SCF Done:  E(UwB97XD) =  -344.593678801     A.U. after    8 cycles
 Optimization completed.
    -- Stationary point found.

                         Standard orientation:
 ---------------------------------------------------------------------
 Center     Atomic      Atomic             Coordinates (Angstroms)
 Number     Number       Type             X           Y           Z
 ---------------------------------------------------------------------
      1          6           0        0.278053   -0.057186    0.530617
      2          6           0       -0.458600    1.168307    0.173863
      3          8           0        1.639187   -0.098202    0.574332
      4          6           0       -1.756204    0.800789   -0.242924
      5          1           0       -0.052557    2.173011    0.290914
      6          1           0       -0.194828    0.572118    1.347275
      7          6           0       -1.877015   -0.571183   -0.278459
      8          1           0       -2.558375    1.509381   -0.451089
      9          6           0       -0.575750   -1.232706    0.093345
     10          1           0       -2.780205   -1.120169   -0.544701
     11          1           0       -0.087109   -1.709448   -0.780146
     12          1           0       -0.677433   -2.017937    0.861620
     13          8           0        2.146291   -0.022259   -0.769463
     14          1           0        2.403780    0.908610   -0.821470
 ---------------------------------------------------------------------

 The electronic state is 2-A.
 Alpha  occ. eigenvalues --  -19.31946 -19.30454 -10.35846 -10.32094 -10.30608
 Alpha  occ. eigenvalues --  -10.30277 -10.30084  -1.22600  -1.02707  -0.96245
 Alpha  occ. eigenvalues --   -0.83464  -0.79878  -0.67864  -0.64656  -0.63100
 Alpha  occ. eigenvalues --   -0.59234  -0.57755  -0.53812  -0.50232  -0.49243
 Alpha  occ. eigenvalues --   -0.47932  -0.45793  -0.43185  -0.38514  -0.36717
 Alpha  occ. eigenvalues --   -0.35903  -0.22903
 Alpha virt. eigenvalues --    0.08767   0.12047   0.15047   0.16176   0.16889
 Alpha virt. eigenvalues --    0.18908   0.20585   0.21422   0.23228   0.26041
 Alpha virt. eigenvalues --    0.30021   0.31604   0.37775   0.41401   0.46827

  Beta  occ. eigenvalues --  -19.31936 -19.30318 -10.35582 -10.31420 -10.30655
  Beta  occ. eigenvalues --  -10.30551 -10.29483  -1.22342  -1.02132  -0.95483
  Beta  occ. eigenvalues --   -0.82060  -0.79630  -0.66579  -0.64184  -0.62327
  Beta  occ. eigenvalues --   -0.58657  -0.57043  -0.53437  -0.49486  -0.48685
  Beta  occ. eigenvalues --   -0.47406  -0.45367  -0.41327  -0.38351  -0.36427
  Beta  occ. eigenvalues --   -0.33749
  Beta virt. eigenvalues --    0.01126   0.10089   0.13098   0.15616   0.16461
  Beta virt. eigenvalues --    0.17531   0.19265   0.20877   0.21720   0.23546
  Beta virt. eigenvalues --    0.26480   0.30500   0.32323   0.38300   0.41891

 Mulliken charges and spin densities:
               1          2
     1  C    0.070984   0.171710
     2  C   -0.096010   0.558795
     3  O   -0.216826  -0.015230
     4  C   -0.007971  -0.253956
     5  H    0.043850  -0.026770
     6  H    0.070147  -0.025791
     7  C   -0.152940   0.537072
     8  H    0.024513   0.008873
     9  C    0.089314  -0.061274
    10  H    0.029823  -0.024040
    11  H    0.065793   0.052783
    12  H    0.056304   0.028541
    13  O   -0.172078   0.050922
    14  H    0.195098  -0.001636
 Sum of Mulliken charges =  -0.00000   1.00000

 Dipole moment (field-independent basis, Debye):
    X=             -0.9929    Y=              1.7676    Z=              0.0566  Tot=              2.0282
 Quadrupole moment (field-independent basis, Debye-Ang):
   XX=            -42.0975   YY=            -36.7118   ZZ=            -42.9429
   XY=              4.5746   XZ=             -1.1700   YZ=             -0.4682

 Normal termination of Gaussian 16 at Fri Sep 19 15:11:54 2025.
