 Gaussian 16, Revision C.01,
 Gaussian 16:  ES64L-G16RevC.01  3-Jul-2019

 ----------------------------------------------------------------------
 #P wb97xd/def2svp # SCF=(xqc) # POpt=(CALCFC,TS,NOEIGEN,MAXCYCLES=60)
 # Freq # int=ultrafine
 ----------------------------------------------------------------------

 --------
 comment:
 --------
 Symbolic Z-matrix:
 Charge =  0 Multiplicity = 2

 SCF Done:  E(UwB97XD) =  -270.780933396     A.U. after   18 cycles
 Optimization completed.
    -- Stationary point found.
 Normal termination of Gaussian 16 at Fri Aug 29 13:23:12 2025.

 --------------------------------------------------------------------
 #P Geom=AllCheck Guess=TCheck SCRF=Check GenChk UwB97XD/def2SVP Freq
 --------------------------------------------------------------------

 Structure from the checkpoint file:  "/scratch/gtemp/avcopan/Gau-1126503.chk"
 --------
 comment:
 --------
 Charge =  0 Multiplicity = 2

                         Standard orientation:
 ---------------------------------------------------------------------
 Center     Atomic      Atomic             Coordinates (Angstroms)
 Number     Number       Type             X           Y           Z
 ---------------------------------------------------------------------
      1          6           0       -0.354603    0.674722    0.904032
      2          6           0       -0.354796   -0.674278    0.904239
      3          1           0       -1.020416    1.300841    1.502004
      4          6           0        0.750844   -1.228975    0.050494
      5          1           0       -1.021053   -1.300041    1.502088
      6          6           0        1.225846   -0.000257   -0.752730
      7          1           0        1.548285   -1.641285    0.695815
      8          1           0        0.405929   -2.050412   -0.594870
      9          6           0        0.751189    1.228845    0.050108
     10          1           0        2.309952   -0.000437   -0.933658
     11          1           0        0.720235   -0.000341   -1.727840
     12          1           0        1.548750    1.641165    0.695275
     13          1           0        0.406489    2.050165   -0.595519
     14          8           0       -1.805778   -0.000044   -0.898547
     15          1           0       -2.562820    0.000356   -0.291773
 ---------------------------------------------------------------------

 SCF Done:  E(UwB97XD) =  -270.780933396     A.U. after    1 cycles

 The electronic state is 2-A.
 Alpha  occ. eigenvalues --  -19.25622 -10.31138 -10.31059 -10.29490 -10.29489
 Alpha  occ. eigenvalues --  -10.28807  -1.04032  -0.94171  -0.80248  -0.79911
 Alpha  occ. eigenvalues --   -0.66082  -0.62194  -0.59317  -0.56000  -0.50259
 Alpha  occ. eigenvalues --   -0.48352  -0.47264  -0.44922  -0.43787  -0.43179
 Alpha  occ. eigenvalues --   -0.42349  -0.41110  -0.37143  -0.30435
 Alpha virt. eigenvalues --    0.08249   0.13467   0.16451   0.18332   0.19045
 Alpha virt. eigenvalues --    0.20135   0.21256   0.21794   0.23564   0.25860
 Alpha virt. eigenvalues --    0.27753   0.27834   0.34971   0.39225   0.46350

  Beta  occ. eigenvalues --  -19.23731 -10.30952 -10.30876 -10.29500 -10.29500
  Beta  occ. eigenvalues --  -10.28806  -0.98385  -0.93554  -0.79809  -0.79789
  Beta  occ. eigenvalues --   -0.65936  -0.61919  -0.59131  -0.55578  -0.48228
  Beta  occ. eigenvalues --   -0.47944  -0.46656  -0.43662  -0.43206  -0.42335
  Beta  occ. eigenvalues --   -0.42131  -0.34655  -0.33105
  Beta virt. eigenvalues --   -0.01832   0.09633   0.13666   0.16637   0.18427
  Beta virt. eigenvalues --    0.19070   0.20574   0.21374   0.21856   0.23601
  Beta virt. eigenvalues --    0.26006   0.27808   0.27861   0.35023   0.39384

 Mulliken charges and spin densities:
               1          2
     1  C   -0.097210   0.104600
     2  C   -0.097169   0.104501
     3  H    0.032895  -0.005335
     4  C    0.018856  -0.005366
     5  H    0.032893  -0.005328
     6  C   -0.073188  -0.000298
     7  H    0.043124   0.003585
     8  H    0.047728   0.004165
     9  C    0.018852  -0.005374
    10  H    0.029742  -0.000387
    11  H    0.059215  -0.000332
    12  H    0.043122   0.003590
    13  H    0.047728   0.004168
    14  O   -0.272630   0.815619
    15  H    0.166040  -0.017808
 Sum of Mulliken charges =   0.00000   1.00000

 Dipole moment (field-independent basis, Debye):
    X=             -0.0482    Y=              0.0006    Z=              1.6562  Tot=              1.6569
 Quadrupole moment (field-independent basis, Debye-Ang):
   XX=            -33.6912   YY=            -36.0672   ZZ=            -38.5498
   XY=             -0.0013   XZ=             -3.1645   YZ=              0.0000

  Exact polarizability:      67.888       0.002      62.783       6.221      -0.000      57.535
 Approx polarizability:      64.669       0.002      67.931       5.728      -0.000      62.868

 ******    1 imaginary frequencies (negative Signs) ******

                      1                      2                      3
                      A                      A                      A
 Frequencies --    -67.2813               148.1132               158.9991
 Red. masses --      4.1607                 4.9605                 3.0416
 Frc consts  --      0.0111                 0.0641                 0.0453
 IR Inten    --     12.9759                 3.7156                 2.1947

                      4                      5                      6
                      A                      A                      A
 Frequencies --    187.5270               212.7186               358.5160
 Red. masses --      2.1998                 1.0874                 2.0186
 Frc consts  --      0.0456                 0.0290                 0.1529
 IR Inten    --      7.2082                54.2377                 3.0965

                      7                      8                      9
                      A                      A                      A
 Frequencies --    612.0975               630.9528               739.6838
 Red. masses --      1.4626                 1.1269                 1.3474
 Frc consts  --      0.3229                 0.2643                 0.4343
 IR Inten    --      1.9592                70.9551                30.6300

                     10                     11                     12
                      A                      A                      A
 Frequencies --    777.4462               832.5912               887.4747
 Red. masses --      4.6186                 1.5930                 1.4856
 Frc consts  --      1.6448                 0.6506                 0.6894
 IR Inten    --      0.1197                 2.0114                 0.7030

                     13                     14                     15
                      A                      A                      A
 Frequencies --    927.0584               931.0433               974.8774
 Red. masses --      2.8444                 1.7897                 1.2159
 Frc consts  --      1.4403                 0.9141                 0.6808
 IR Inten    --      0.6820                15.0894                 0.0172

                     16                     17                     18
                      A                      A                      A
 Frequencies --    992.8491              1053.9098              1056.8832
 Red. masses --      2.2551                 1.6270                 1.7241
 Frc consts  --      1.3098                 1.0647                 1.1347
 IR Inten    --      2.1863                 2.4160                 7.8146

                     19                     20                     21
                      A                      A                      A
 Frequencies --   1120.6479              1151.3366              1228.1887
 Red. masses --      1.1275                 1.1620                 1.2086
 Frc consts  --      0.8343                 0.9075                 1.0741
 IR Inten    --      2.2514                 1.0465                 2.3688

                     22                     23                     24
                      A                      A                      A
 Frequencies --   1237.5362              1302.7119              1334.3885
 Red. masses --      1.4253                 1.3409                 1.3754
 Frc consts  --      1.2861                 1.3408                 1.4430
 IR Inten    --      0.0397                 0.6544                 0.1090

                     25                     26                     27
                      A                      A                      A
 Frequencies --   1344.9087              1393.7672              1449.8069
 Red. masses --      1.8418                 1.7808                 1.0838
 Frc consts  --      1.9628                 2.0382                 1.3422
 IR Inten    --      2.2371                 2.2210                 3.9185

                     28                     29                     30
                      A                      A                      A
 Frequencies --   1455.4531              1482.2630              1665.4338
 Red. masses --      1.1177                 1.1124                 6.1875
 Frc consts  --      1.3949                 1.4400                10.1115
 IR Inten    --      6.2419                 6.4232                60.7678

                     31                     32                     33
                      A                      A                      A
 Frequencies --   3040.4235              3041.2859              3098.2703
 Red. masses --      1.0695                 1.0691                 1.0638
 Frc consts  --      5.8251                 5.8262                 6.0168
 IR Inten    --     21.8985                38.6886                25.2470

                     34                     35                     36
                      A                      A                      A
 Frequencies --   3121.9732              3122.5468              3162.2010
 Red. masses --      1.0973                 1.0976                 1.1075
 Frc consts  --      6.3011                 6.3054                 6.5248
 IR Inten    --     12.1601                 9.6329                13.3376

                     37                     38                     39
                      A                      A                      A
 Frequencies --   3213.2056              3235.9555              3830.2173
 Red. masses --      1.0870                 1.1048                 1.0677
 Frc consts  --      6.6121                 6.8164                 9.2289
 IR Inten    --      2.2084                15.0434                29.7855

 - Thermochemistry -
 -------------------
 Temperature   298.150 Kelvin.  Pressure   1.00000 Atm.
 Atom     1 has atomic number  6 and mass  12.00000

 Molecular mass:    85.06534 amu.
 Principal axes and moments of inertia in atomic units:
                           1         2         3
     Eigenvalues --   406.37771 557.33913 611.45296
           X            0.99756  -0.00001  -0.06987
           Y            0.00001   1.00000  -0.00001
           Z            0.06987   0.00001   0.99756
 This molecule is an asymmetric top.
 Rotational symmetry number  1.
 Rotational temperatures (Kelvin)      0.21314     0.15541     0.14165
 Rotational constants (GHZ):           4.44104     3.23814     2.95156
    1 imaginary frequencies ignored.
 Zero-point vibrational energy     338036.3 (Joules/Mol)
                                   80.79262 (Kcal/Mol)
 Warning -- explicit consideration of   6 degrees of freedom as
           vibrations may cause significant error
 Vibrational temperatures:    213.10   228.76   269.81   306.05   515.82
          (Kelvin)            880.67   907.80  1064.24  1118.57  1197.91
                             1276.88  1333.83  1339.56  1402.63  1428.49
                             1516.34  1520.62  1612.36  1656.52  1767.09
                             1780.54  1874.31  1919.89  1935.02  2005.32
                             2085.95  2094.07  2132.65  2396.19  4374.49
                             4375.73  4457.72  4491.82  4492.65  4549.70
                             4623.09  4655.82  5510.83

 Zero-point correction=                           0.128751 (Hartree/Particle)
 Thermal correction to Energy=                    0.135303
 Thermal correction to Enthalpy=                  0.136247
 Thermal correction to Gibbs Free Energy=         0.098110
 Sum of electronic and zero-point Energies=           -270.652182
 Sum of electronic and thermal Energies=              -270.645631
 Sum of electronic and thermal Enthalpies=            -270.644687
 Sum of electronic and thermal Free Energies=         -270.682823

                     E (Thermal)             CV                S
                      KCal/Mol        Cal/Mol-Kelvin    Cal/Mol-Kelvin
 Total                   84.904             23.566             80.265
 Electronic               0.000              0.000              1.377
 Translational            0.889              2.981             39.236
 Rotational               0.889              2.981             26.429
 Vibrational             83.126             17.605             13.223
 Vibration     1          0.617              1.905              2.696
 Vibration     2          0.621              1.893              2.562
 Vibration     3          0.632              1.857              2.252
 Vibration     4          0.644              1.822              2.020
 Vibration     5          0.733              1.558              1.129
 Vibration     6          0.971              1.006              0.429

 Optimization completed.
    -- Stationary point found.
 Normal termination of Gaussian 16 at Fri Aug 29 13:23:59 2025.
