 Gaussian 16, Revision C.01,
 Gaussian 16:  ES64L-G16RevC.01  3-Jul-2019

 ---------------------------------------------------------------------
 #P wb97xd/def2svp # SCF=(xqc) # Freq=() # IOp(7/33=1) # int=ultrafine
 ---------------------------------------------------------------------

 --------
 comment:
 --------
 Symbolic Z-matrix:
 Charge =  0 Multiplicity = 2

                         Standard orientation:
 ---------------------------------------------------------------------
 Center     Atomic      Atomic             Coordinates (Angstroms)
 Number     Number       Type             X           Y           Z
 ---------------------------------------------------------------------
      1          6           0        1.689583   -0.309871   -0.678926
      2          6           0        1.255080    1.108639   -0.436120
      3          1           0        1.839975   -0.654118   -1.705631
      4          6           0        0.199977    1.081715    0.698313
      5          1           0        0.813253    1.506684   -1.362214
      6          1           0        2.088316    1.784683   -0.178040
      7          6           0       -0.473354   -0.264486    0.734164
      8          1           0        0.669782    1.257570    1.678956
      9          1           0       -0.549837    1.877990    0.560069
     10          6           0        1.481353   -1.218729    0.327556
     11          8           0       -1.193117   -0.629947   -0.356574
     12          1           0       -0.865411   -0.631748    1.696193
     13          1           0        1.531504   -2.292984    0.124960
     14          1           0        1.625245   -0.947864    1.378297
     15          8           0       -2.431106    0.161928   -0.375345
     16          1           0       -3.074877   -0.539672   -0.207161
 ---------------------------------------------------------------------

 SCF Done:  E(UwB97XD) =  -345.815380624     A.U. after   20 cycles

 The electronic state is 2-A.
 Alpha  occ. eigenvalues --  -19.30693 -19.29830 -10.35532 -10.30443 -10.30042
 Alpha  occ. eigenvalues --  -10.29824 -10.29695  -1.20621  -1.01341  -0.90917
 Alpha  occ. eigenvalues --   -0.81870  -0.76583  -0.67518  -0.63798  -0.59852
 Alpha  occ. eigenvalues --   -0.58301  -0.57721  -0.53451  -0.50972  -0.49125
 Alpha  occ. eigenvalues --   -0.47849  -0.46325  -0.43226  -0.42279  -0.38604
 Alpha  occ. eigenvalues --   -0.35804  -0.34947  -0.25373
 Alpha virt. eigenvalues --    0.07548   0.12635   0.14030   0.15926   0.16579
 Alpha virt. eigenvalues --    0.18519   0.20523   0.21249   0.22603   0.23390
 Alpha virt. eigenvalues --    0.27011   0.29486   0.30297   0.32972   0.38351

  Beta  occ. eigenvalues --  -19.30780 -19.29472 -10.34565 -10.30736 -10.29846
  Beta  occ. eigenvalues --  -10.29734 -10.29386  -1.20048  -1.00408  -0.90226
  Beta  occ. eigenvalues --   -0.81342  -0.75848  -0.66403  -0.62873  -0.59063
  Beta  occ. eigenvalues --   -0.57765  -0.57244  -0.52855  -0.50231  -0.48429
  Beta  occ. eigenvalues --   -0.47360  -0.45570  -0.42733  -0.41980  -0.38248
  Beta  occ. eigenvalues --   -0.34764  -0.33678
  Beta virt. eigenvalues --    0.00754   0.09220   0.13774   0.15501   0.16209
  Beta virt. eigenvalues --    0.16775   0.18570   0.20628   0.21680   0.22712
  Beta virt. eigenvalues --    0.23676   0.27272   0.29899   0.30967   0.33920

 Mulliken charges and spin densities:
               1          2
     1  C   -0.117339   0.576935
     2  C    0.009191  -0.029527
     3  H    0.043842  -0.024861
     4  C   -0.021092  -0.027722
     5  H    0.049063   0.008212
     6  H    0.049178   0.015782
     7  C    0.026412   0.668556
     8  H    0.032341   0.000884
     9  H    0.057786   0.014420
    10  C   -0.051365  -0.291141
    11  O   -0.226609  -0.052424
    12  H    0.025788  -0.026495
    13  H    0.053360   0.012967
    14  H    0.061303   0.034290
    15  O   -0.183874   0.118466
    16  H    0.192017   0.001658
 Sum of Mulliken charges =  -0.00000   1.00000

 Dipole moment (field-independent basis, Debye):
    X=             -0.1394    Y=             -0.3255    Z=              1.2695  Tot=              1.3180
 Quadrupole moment (field-independent basis, Debye-Ang):
   XX=            -39.5026   YY=            -41.4737   ZZ=            -41.5055
   XY=              3.1637   XZ=             -1.5737   YZ=             -0.3471

  Exact polarizability:      83.122      -3.631      61.671      -5.028      -3.026      58.409
 Approx polarizability:      82.627      -5.056      66.800      -3.709      -4.279      65.857

 ******    1 imaginary frequencies (negative Signs) ******

                      1                      2                      3
                      A                      A                      A
 Frequencies --   -663.4658                61.2618               135.9086
 Red. masses --      5.0835                 4.7988                 3.1333
 Frc consts  --      1.3184                 0.0106                 0.0341
 IR Inten    --      2.5439                 5.5527                 1.0008

                      4                      5                      6
                      A                      A                      A
 Frequencies --    150.6960               200.2208               268.8375
 Red. masses --      1.6774                 1.3468                 2.8578
 Frc consts  --      0.0224                 0.0318                 0.1217
 IR Inten    --     31.8208                80.7974                 4.6393

                      7                      8                      9
                      A                      A                      A
 Frequencies --    338.8957               472.4584               534.4874
 Red. masses --      2.5827                 2.9635                 1.9159
 Frc consts  --      0.1748                 0.3898                 0.3225
 IR Inten    --      2.8088                15.3911                 0.5725

                     10                     11                     12
                      A                      A                      A
 Frequencies --    614.2068               665.3662               688.0072
 Red. masses --      1.8396                 2.0909                 3.6136
 Frc consts  --      0.4089                 0.5454                 1.0078
 IR Inten    --     67.9151                 1.7490                 9.4531

                     13                     14                     15
                      A                      A                      A
 Frequencies --    757.5152               799.9794               886.5675
 Red. masses --      1.5252                 1.6272                 2.9086
 Frc consts  --      0.5157                 0.6135                 1.3470
 IR Inten    --     41.0051                14.9999                 4.0205

                     16                     17                     18
                      A                      A                      A
 Frequencies --    921.4910               940.6406               950.3430
 Red. masses --      1.6441                 1.3152                 1.4893
 Frc consts  --      0.8225                 0.6856                 0.7925
 IR Inten    --     13.1505                 6.5898                 6.5176

                     19                     20                     21
                      A                      A                      A
 Frequencies --   1005.5254              1014.3482              1102.9834
 Red. masses --      1.7019                 1.8442                 1.5533
 Frc consts  --      1.0138                 1.1180                 1.1134
 IR Inten    --      2.9916                 7.8050                 3.7819

                     22                     23                     24
                      A                      A                      A
 Frequencies --   1158.1254              1205.5240              1218.0717
 Red. masses --      1.4595                 1.5476                 1.8047
 Frc consts  --      1.1533                 1.3252                 1.5776
 IR Inten    --     12.4535                 9.8849                 7.7581

                     25                     26                     27
                      A                      A                      A
 Frequencies --   1259.1243              1332.4379              1338.4274
 Red. masses --      1.3472                 1.1398                 1.5086
 Frc consts  --      1.2584                 1.1923                 1.5922
 IR Inten    --      1.3400                30.4397                 4.4606

                     28                     29                     30
                      A                      A                      A
 Frequencies --   1344.8242              1393.1367              1418.0775
 Red. masses --      1.4581                 1.3720                 1.4499
 Frc consts  --      1.5537                 1.5689                 1.7179
 IR Inten    --      2.4316                19.0847                 5.8577

                     31                     32                     33
                      A                      A                      A
 Frequencies --   1448.3972              1469.3976              1575.1277
 Red. masses --      1.0725                 1.1255                 2.4151
 Frc consts  --      1.3256                 1.4318                 3.5303
 IR Inten    --      5.8312                11.9985                 3.3610

                     34                     35                     36
                      A                      A                      A
 Frequencies --   3057.4306              3068.1702              3101.4217
 Red. masses --      1.0649                 1.0635                 1.0885
 Frc consts  --      5.8653                 5.8983                 6.1690
 IR Inten    --     20.1355                21.9791                38.8919

                     37                     38                     39
                      A                      A                      A
 Frequencies --   3113.6626              3127.9927              3141.2045
 Red. masses --      1.1026                 1.1030                 1.0598
 Frc consts  --      6.2979                 6.3584                 6.1614
 IR Inten    --      0.6361                21.3176                 7.6113

                     40                     41                     42
                      A                      A                      A
 Frequencies --   3203.1296              3237.5893              3847.4407
 Red. masses --      1.0924                 1.1148                 1.0687
 Frc consts  --      6.6037                 6.8851                 9.3204
 IR Inten    --      4.6321                 7.8762                77.4060

 - Thermochemistry -
 -------------------
 Temperature   298.150 Kelvin.  Pressure   1.00000 Atm.
 Atom     1 has atomic number  6 and mass  12.00000

 Molecular mass:   101.06025 amu.
 Principal axes and moments of inertia in atomic units:
                           1         2         3
     Eigenvalues --   399.38178 938.727421063.14284
           X            0.99992   0.00480  -0.01136
           Y           -0.00500   0.99983  -0.01781
           Z            0.01127   0.01787   0.99978
 This molecule is an asymmetric top.
 Rotational symmetry number  1.
 Rotational temperatures (Kelvin)      0.21687     0.09227     0.08147
 Rotational constants (GHZ):           4.51884     1.92254     1.69755
    1 imaginary frequencies ignored.
 Zero-point vibrational energy     344335.8 (Joules/Mol)
                                   82.29824 (Kcal/Mol)
 Warning -- explicit consideration of   9 degrees of freedom as
           vibrations may cause significant error
 Vibrational temperatures:     88.14   195.54   216.82   288.07   386.80
          (Kelvin)            487.60   679.76   769.01   883.71   957.31
                              989.89  1089.90  1150.99  1275.57  1325.82
                             1353.37  1367.33  1446.73  1459.42  1586.95
                             1666.28  1734.48  1752.53  1811.60  1917.08
                             1925.70  1934.90  2004.41  2040.30  2083.92
                             2114.14  2266.26  4398.96  4414.41  4462.25
                             4479.87  4500.48  4519.49  4608.59  4658.17
                             5535.61

 Zero-point correction=                           0.131151 (Hartree/Particle)
 Thermal correction to Energy=                    0.138928
 Thermal correction to Enthalpy=                  0.139873
 Thermal correction to Gibbs Free Energy=         0.098343
 Sum of electronic and zero-point Energies=           -345.684230
 Sum of electronic and thermal Energies=              -345.676452
 Sum of electronic and thermal Enthalpies=            -345.675508
 Sum of electronic and thermal Free Energies=         -345.717038

                     E (Thermal)             CV                S
                      KCal/Mol        Cal/Mol-Kelvin    Cal/Mol-Kelvin
 Total                   87.179             28.042             87.407
 Electronic               0.000              0.000              1.377
 Translational            0.889              2.981             39.749
 Rotational               0.889              2.981             27.480
 Vibrational             85.401             22.080             18.800
 Vibration     1          0.597              1.973              4.416
 Vibration     2          0.614              1.917              2.861
 Vibration     3          0.618              1.902              2.663
 Vibration     4          0.638              1.840              2.131
 Vibration     5          0.673              1.730              1.604
 Vibration     6          0.719              1.598              1.217
 Vibration     7          0.829              1.311              0.731
 Vibration     8          0.889              1.174              0.577
 Vibration     9          0.974              1.002              0.426

 Normal termination of Gaussian 16 at Wed May 14 13:35:25 2025.
