 Gaussian 16, Revision C.01,
 Gaussian 16:  ES64L-G16RevC.01  3-Jul-2019

 -------------------------------------------------------
 #P wb97xd/def2svp # SCF=(xqc) # POpt=() # int=ultrafine
 -------------------------------------------------------

 --------
 comment:
 --------
 Symbolic Z-matrix:
 Charge =  0 Multiplicity = 2

 SCF Done:  E(UwB97XD) =  -344.573257622     A.U. after   23 cycles
 SCF Done:  E(UwB97XD) =  -344.573599394     A.U. after   18 cycles
 SCF Done:  E(UwB97XD) =  -344.573661485     A.U. after   18 cycles
 SCF Done:  E(UwB97XD) =  -344.573693270     A.U. after   18 cycles
 SCF Done:  E(UwB97XD) =  -344.573682213     A.U. after   22 cycles
 SCF Done:  E(UwB97XD) =  -344.573723085     A.U. after   15 cycles
 SCF Done:  E(UwB97XD) =  -344.573725544     A.U. after   16 cycles
 SCF Done:  E(UwB97XD) =  -344.573732279     A.U. after   15 cycles
 SCF Done:  E(UwB97XD) =  -344.573734635     A.U. after   15 cycles
 Optimization completed.
    -- Stationary point found.

                         Standard orientation:
 ---------------------------------------------------------------------
 Center     Atomic      Atomic             Coordinates (Angstroms)
 Number     Number       Type             X           Y           Z
 ---------------------------------------------------------------------
      1          6           0        0.679185   -1.295349    0.250442
      2          6           0        1.709193   -0.641272   -0.493757
      3          1           0        0.841516   -2.209784    0.827628
      4          6           0        1.636968    0.739932   -0.331582
      5          1           0        2.482956   -1.151886   -1.067370
      6          6           0        0.769374    1.265723    0.623900
      7          1           0        2.206910    1.418946   -0.974237
      8          1           0        0.543077    0.785416    1.572868
      9          1           0        0.564546    2.341400    0.601115
     10          6           0       -0.470104   -0.607141    0.487616
     11          1           0       -1.172362   -1.003749    1.230508
     12          8           0       -1.092360    0.323055   -0.302396
     13          8           0       -2.474798   -0.045703   -0.341870
     14          1           0       -2.877075    0.829484   -0.256097
 ---------------------------------------------------------------------

 The electronic state is 2-A.
 Alpha  occ. eigenvalues --  -19.33698 -19.31939 -10.35979 -10.30172 -10.29683
 Alpha  occ. eigenvalues --  -10.29507 -10.29298  -1.24360  -1.03075  -0.92005
 Alpha  occ. eigenvalues --   -0.82635  -0.77012  -0.67329  -0.65334  -0.62212
 Alpha  occ. eigenvalues --   -0.59199  -0.57443  -0.54371  -0.50578  -0.48235
 Alpha  occ. eigenvalues --   -0.46620  -0.45304  -0.43997  -0.39006  -0.38530
 Alpha  occ. eigenvalues --   -0.32244  -0.23459
 Alpha virt. eigenvalues --    0.04366   0.11566   0.14155   0.14827   0.16758
 Alpha virt. eigenvalues --    0.18114   0.19858   0.22169   0.22632   0.24791
 Alpha virt. eigenvalues --    0.29212   0.35683   0.38921   0.44280   0.46002

  Beta  occ. eigenvalues --  -19.33627 -19.31903 -10.35691 -10.30472 -10.29629
  Beta  occ. eigenvalues --  -10.29086 -10.28452  -1.24202  -1.02765  -0.91269
  Beta  occ. eigenvalues --   -0.81916  -0.75090  -0.66792  -0.64967  -0.61541
  Beta  occ. eigenvalues --   -0.58941  -0.56985  -0.53811  -0.49984  -0.47838
  Beta  occ. eigenvalues --   -0.45896  -0.44716  -0.43626  -0.38162  -0.36321
  Beta  occ. eigenvalues --   -0.30987
  Beta virt. eigenvalues --    0.01576   0.04608   0.12460   0.14584   0.16639
  Beta virt. eigenvalues --    0.17268   0.18468   0.20815   0.22582   0.22938
  Beta virt. eigenvalues --    0.25070   0.29727   0.36014   0.39126   0.44724

 Mulliken charges and spin densities:
               1          2
     1  C   -0.039664  -0.114601
     2  C   -0.033036   0.534628
     3  H    0.041749   0.011949
     4  C   -0.062272  -0.279072
     5  H    0.029983  -0.025450
     6  C   -0.071535   0.694670
     7  H    0.036266   0.017590
     8  H    0.080032  -0.025054
     9  H    0.036898  -0.028000
    10  C    0.090718   0.210736
    11  H    0.043817  -0.011526
    12  O   -0.205938  -0.000637
    13  O   -0.146458   0.014872
    14  H    0.199439  -0.000106
 Sum of Mulliken charges =  -0.00000   1.00000

 Dipole moment (field-independent basis, Debye):
    X=             -0.6330    Y=              0.9172    Z=              1.0473  Tot=              1.5293
 Quadrupole moment (field-independent basis, Debye-Ang):
   XX=            -37.3737   YY=            -38.8654   ZZ=            -41.6192
   XY=             -4.7310   XZ=             -3.0946   YZ=             -1.6713

 Normal termination of Gaussian 16 at Tue May 20 11:16:27 2025.
