 Gaussian 16, Revision C.01,
 Gaussian 16:  ES64L-G16RevC.01  3-Jul-2019

 -------------------------------------------------------
 #P wb97xd/def2svp # SCF=(xqc) # POpt=() # int=ultrafine
 -------------------------------------------------------

 --------
 comment:
 --------
 Symbolic Z-matrix:
 Charge =  0 Multiplicity = 2

 SCF Done:  E(UwB97XD) =  -344.572470848     A.U. after   23 cycles
 SCF Done:  E(UwB97XD) =  -344.572485704     A.U. after   15 cycles
 SCF Done:  E(UwB97XD) =  -344.572481503     A.U. after   18 cycles
 SCF Done:  E(UwB97XD) =  -344.572493239     A.U. after   16 cycles
 SCF Done:  E(UwB97XD) =  -344.572495133     A.U. after   14 cycles
 SCF Done:  E(UwB97XD) =  -344.572496446     A.U. after   16 cycles
 SCF Done:  E(UwB97XD) =  -344.572499059     A.U. after   14 cycles
 SCF Done:  E(UwB97XD) =  -344.572497497     A.U. after   17 cycles
 SCF Done:  E(UwB97XD) =  -344.572499840     A.U. after   13 cycles
 SCF Done:  E(UwB97XD) =  -344.572499934     A.U. after   13 cycles
 SCF Done:  E(UwB97XD) =  -344.572488149     A.U. after   17 cycles
 SCF Done:  E(UwB97XD) =  -344.572500006     A.U. after   15 cycles
 Optimization completed.
    -- Stationary point found.

                         Standard orientation:
 ---------------------------------------------------------------------
 Center     Atomic      Atomic             Coordinates (Angstroms)
 Number     Number       Type             X           Y           Z
 ---------------------------------------------------------------------
      1          6           0        0.671230   -1.293387    0.258913
      2          6           0        1.699145   -0.649469   -0.501443
      3          1           0        0.836818   -2.197884    0.850666
      4          6           0        1.640155    0.729527   -0.338618
      5          1           0        2.458769   -1.166612   -1.087948
      6          6           0        0.778963    1.263699    0.623323
      7          1           0        2.212736    1.403963   -0.983864
      8          1           0        0.573196    0.794382    1.582732
      9          1           0        0.570696    2.338471    0.592064
     10          6           0       -0.468968   -0.592279    0.498365
     11          1           0       -1.166264   -0.971156    1.255290
     12          8           0       -1.092966    0.329366   -0.302049
     13          8           0       -2.472777   -0.050505   -0.348415
     14          1           0       -2.883168    0.819407   -0.248469
 ---------------------------------------------------------------------

 The electronic state is 2-A.
 Alpha  occ. eigenvalues --  -19.33621 -19.31879 -10.36047 -10.30258 -10.29699
 Alpha  occ. eigenvalues --  -10.29513 -10.29304  -1.24258  -1.03007  -0.92044
 Alpha  occ. eigenvalues --   -0.82602  -0.77039  -0.67302  -0.65268  -0.62155
 Alpha  occ. eigenvalues --   -0.59238  -0.57417  -0.54381  -0.50612  -0.48157
 Alpha  occ. eigenvalues --   -0.46661  -0.45220  -0.43977  -0.38890  -0.38514
 Alpha  occ. eigenvalues --   -0.32345  -0.23410
 Alpha virt. eigenvalues --    0.04257   0.11585   0.14144   0.14839   0.16780
 Alpha virt. eigenvalues --    0.18066   0.19814   0.22130   0.22586   0.24765
 Alpha virt. eigenvalues --    0.29171   0.35470   0.39019   0.44278   0.45999

  Beta  occ. eigenvalues --  -19.33550 -19.31843 -10.35794 -10.30554 -10.29609
  Beta  occ. eigenvalues --  -10.29117 -10.28441  -1.24105  -1.02707  -0.91300
  Beta  occ. eigenvalues --   -0.81876  -0.75122  -0.66767  -0.64900  -0.61485
  Beta  occ. eigenvalues --   -0.58993  -0.56960  -0.53828  -0.50012  -0.47768
  Beta  occ. eigenvalues --   -0.45930  -0.44639  -0.43607  -0.38137  -0.36235
  Beta  occ. eigenvalues --   -0.31047
  Beta virt. eigenvalues --    0.01641   0.04427   0.12489   0.14589   0.16602
  Beta virt. eigenvalues --    0.17295   0.18456   0.20779   0.22527   0.22887
  Beta virt. eigenvalues --    0.25048   0.29666   0.35817   0.39215   0.44731

 Mulliken charges and spin densities:
               1          2
     1  C   -0.039128  -0.091399
     2  C   -0.033732   0.520360
     3  H    0.042224   0.010740
     4  C   -0.060567  -0.274950
     5  H    0.030207  -0.024711
     6  C   -0.073919   0.707542
     7  H    0.036728   0.017321
     8  H    0.080654  -0.025390
     9  H    0.037374  -0.028614
    10  C    0.091236   0.185662
    11  H    0.043246  -0.010288
    12  O   -0.206330  -0.001248
    13  O   -0.147321   0.015135
    14  H    0.199328  -0.000157
 Sum of Mulliken charges =  -0.00000   1.00000

 Dipole moment (field-independent basis, Debye):
    X=             -0.6057    Y=              0.9182    Z=              1.0804  Tot=              1.5419
 Quadrupole moment (field-independent basis, Debye-Ang):
   XX=            -37.3494   YY=            -38.9640   ZZ=            -41.5315
   XY=             -4.7173   XZ=             -3.1678   YZ=             -1.6442

 Normal termination of Gaussian 16 at Tue May 20 11:46:16 2025.
