 Gaussian 16, Revision C.01,
 Gaussian 16:  ES64L-G16RevC.01  3-Jul-2019

 -------------------------------------------------------
 #P wb97xd/def2svp # SCF=(xqc) # POpt=() # int=ultrafine
 -------------------------------------------------------

 --------
 comment:
 --------
 Symbolic Z-matrix:
 Charge =  0 Multiplicity = 2

 SCF Done:  E(UwB97XD) =  -344.578959641     A.U. after   23 cycles
 SCF Done:  E(UwB97XD) =  -344.579800279     A.U. after   18 cycles
 SCF Done:  E(UwB97XD) =  -344.579896903     A.U. after   18 cycles
 SCF Done:  E(UwB97XD) =  -344.579926172     A.U. after   15 cycles
 SCF Done:  E(UwB97XD) =  -344.579913857     A.U. after   18 cycles
 SCF Done:  E(UwB97XD) =  -344.579946380     A.U. after   16 cycles
 SCF Done:  E(UwB97XD) =  -344.579951535     A.U. after   15 cycles
 SCF Done:  E(UwB97XD) =  -344.579910373     A.U. after   19 cycles
 SCF Done:  E(UwB97XD) =  -344.579955453     A.U. after   16 cycles
 SCF Done:  E(UwB97XD) =  -344.579956554     A.U. after   14 cycles
 SCF Done:  E(UwB97XD) =  -344.579956989     A.U. after   12 cycles
 Optimization completed.
    -- Stationary point found.

                         Standard orientation:
 ---------------------------------------------------------------------
 Center     Atomic      Atomic             Coordinates (Angstroms)
 Number     Number       Type             X           Y           Z
 ---------------------------------------------------------------------
      1          6           0        0.700687   -1.301307    0.229759
      2          6           0        1.737603   -0.618533   -0.466716
      3          1           0        0.859030   -2.239152    0.769307
      4          6           0        1.633022    0.768410   -0.312556
      5          1           0        2.548581   -1.113104   -1.002066
      6          6           0        0.750269    1.277494    0.624453
      7          1           0        2.200217    1.455009   -0.949214
      8          1           0        0.465141    0.765882    1.539649
      9          1           0        0.548651    2.353899    0.619949
     10          6           0       -0.479566   -0.658324    0.450919
     11          1           0       -1.195658   -1.104746    1.149993
     12          8           0       -1.092387    0.296161   -0.310951
     13          8           0       -2.485646   -0.020317   -0.320973
     14          1           0       -2.853782    0.869029   -0.227384
 ---------------------------------------------------------------------

 The electronic state is 2-A.
 Alpha  occ. eigenvalues --  -19.33936 -19.32177 -10.35809 -10.29880 -10.29693
 Alpha  occ. eigenvalues --  -10.29497 -10.29295  -1.24702  -1.03264  -0.91847
 Alpha  occ. eigenvalues --   -0.82748  -0.76902  -0.67459  -0.65576  -0.62308
 Alpha  occ. eigenvalues --   -0.59079  -0.57503  -0.54383  -0.50500  -0.48524
 Alpha  occ. eigenvalues --   -0.46491  -0.45459  -0.44008  -0.39427  -0.38614
 Alpha  occ. eigenvalues --   -0.31995  -0.23717
 Alpha virt. eigenvalues --    0.04816   0.11326   0.14190   0.14771   0.16727
 Alpha virt. eigenvalues --    0.18254   0.19983   0.22291   0.22745   0.24844
 Alpha virt. eigenvalues --    0.29270   0.36335   0.38731   0.44286   0.46017

  Beta  occ. eigenvalues --  -19.33862 -19.32146 -10.35441 -10.30187 -10.29681
  Beta  occ. eigenvalues --  -10.29063 -10.28502  -1.24534  -1.02942  -0.91121
  Beta  occ. eigenvalues --   -0.82050  -0.74963  -0.66915  -0.65227  -0.61644
  Beta  occ. eigenvalues --   -0.58784  -0.57037  -0.53805  -0.49931  -0.48100
  Beta  occ. eigenvalues --   -0.45777  -0.44881  -0.43610  -0.38420  -0.36542
  Beta  occ. eigenvalues --   -0.30826
  Beta virt. eigenvalues --    0.01273   0.05297   0.12202   0.14529   0.16696
  Beta virt. eigenvalues --    0.17245   0.18503   0.20902   0.22779   0.23020
  Beta virt. eigenvalues --    0.25115   0.29836   0.36612   0.38974   0.44710

 Mulliken charges and spin densities:
               1          2
     1  C   -0.045302  -0.169359
     2  C   -0.029115   0.567776
     3  H    0.040715   0.014767
     4  C   -0.068527  -0.286531
     5  H    0.029723  -0.027134
     6  C   -0.064125   0.659093
     7  H    0.034705   0.018228
     8  H    0.076132  -0.024546
     9  H    0.036151  -0.026838
    10  C    0.091570   0.273977
    11  H    0.045139  -0.014576
    12  O   -0.203452   0.002589
    13  O   -0.143889   0.012589
    14  H    0.200275  -0.000033
 Sum of Mulliken charges =  -0.00000   1.00000

 Dipole moment (field-independent basis, Debye):
    X=             -0.7120    Y=              0.9061    Z=              1.0229  Tot=              1.5408
 Quadrupole moment (field-independent basis, Debye-Ang):
   XX=            -37.5041   YY=            -38.5428   ZZ=            -41.9425
   XY=             -4.7746   XZ=             -3.1576   YZ=             -1.6477

 Normal termination of Gaussian 16 at Tue May 20 11:02:48 2025.
