 Gaussian 16, Revision C.01,
 Gaussian 16:  ES64L-G16RevC.01  3-Jul-2019

 -------------------------------------------------------
 #P wb97xd/def2svp # SCF=(xqc) # POpt=() # int=ultrafine
 -------------------------------------------------------

 --------
 comment:
 --------
 Symbolic Z-matrix:
 Charge =  0 Multiplicity = 2

 SCF Done:  E(UwB97XD) =  -344.571254382     A.U. after   23 cycles
 SCF Done:  E(UwB97XD) =  -344.571270087     A.U. after   15 cycles
 SCF Done:  E(UwB97XD) =  -344.571277538     A.U. after   15 cycles
 SCF Done:  E(UwB97XD) =  -344.571284073     A.U. after   15 cycles
 SCF Done:  E(UwB97XD) =  -344.571270249     A.U. after   23 cycles
 SCF Done:  E(UwB97XD) =  -344.571292194     A.U. after   16 cycles
 SCF Done:  E(UwB97XD) =  -344.571293602     A.U. after   14 cycles
 SCF Done:  E(UwB97XD) =  -344.571236900     A.U. after   22 cycles
 SCF Done:  E(UwB97XD) =  -344.571295142     A.U. after   16 cycles
 SCF Done:  E(UwB97XD) =  -344.571295622     A.U. after   14 cycles
 Optimization completed.
    -- Stationary point found.

                         Standard orientation:
 ---------------------------------------------------------------------
 Center     Atomic      Atomic             Coordinates (Angstroms)
 Number     Number       Type             X           Y           Z
 ---------------------------------------------------------------------
      1          6           0        0.653418   -1.290323    0.273997
      2          6           0        1.678640   -0.667552   -0.513851
      3          1           0        0.821896   -2.180578    0.886188
      4          6           0        1.648343    0.708117   -0.353067
      5          1           0        2.411926   -1.199701   -1.120172
      6          6           0        0.802274    1.261601    0.620355
      7          1           0        2.227226    1.370571   -1.005268
      8          1           0        0.634535    0.812109    1.597148
      9          1           0        0.593984    2.335793    0.575334
     10          6           0       -0.470604   -0.566584    0.518255
     11          1           0       -1.160757   -0.917893    1.295175
     12          8           0       -1.094723    0.344504   -0.296586
     13          8           0       -2.468670   -0.056608   -0.359842
     14          1           0       -2.894089    0.804976   -0.251116
 ---------------------------------------------------------------------

 The electronic state is 2-A.
 Alpha  occ. eigenvalues --  -19.33473 -19.31757 -10.36138 -10.30388 -10.29740
 Alpha  occ. eigenvalues --  -10.29542 -10.29312  -1.24085  -1.02867  -0.92088
 Alpha  occ. eigenvalues --   -0.82553  -0.77050  -0.67269  -0.65127  -0.62050
 Alpha  occ. eigenvalues --   -0.59288  -0.57348  -0.54387  -0.50648  -0.48053
 Alpha  occ. eigenvalues --   -0.46740  -0.45068  -0.43926  -0.38725  -0.38445
 Alpha  occ. eigenvalues --   -0.32518  -0.23365
 Alpha virt. eigenvalues --    0.04085   0.11652   0.14138   0.14884   0.16813
 Alpha virt. eigenvalues --    0.18007   0.19748   0.22074   0.22521   0.24708
 Alpha virt. eigenvalues --    0.29106   0.35150   0.39184   0.44290   0.46016

  Beta  occ. eigenvalues --  -19.33403 -19.31722 -10.35940 -10.30674 -10.29591
  Beta  occ. eigenvalues --  -10.29186 -10.28425  -1.23942  -1.02585  -0.91331
  Beta  occ. eigenvalues --   -0.81816  -0.75144  -0.66735  -0.64762  -0.61385
  Beta  occ. eigenvalues --   -0.59060  -0.56895  -0.53844  -0.50042  -0.47671
  Beta  occ. eigenvalues --   -0.46000  -0.44525  -0.43547  -0.38060  -0.36094
  Beta  occ. eigenvalues --   -0.31152
  Beta virt. eigenvalues --    0.01706   0.04157   0.12588   0.14613   0.16551
  Beta virt. eigenvalues --    0.17339   0.18447   0.20715   0.22456   0.22801
  Beta virt. eigenvalues --    0.24998   0.29569   0.35523   0.39370   0.44758

 Mulliken charges and spin densities:
               1          2
     1  C   -0.038838  -0.050846
     2  C   -0.034108   0.493275
     3  H    0.043009   0.008533
     4  C   -0.058543  -0.265865
     5  H    0.030684  -0.023317
     6  C   -0.077302   0.727055
     7  H    0.037420   0.016869
     8  H    0.081221  -0.026001
     9  H    0.038322  -0.029534
    10  C    0.093186   0.144951
    11  H    0.042197  -0.008265
    12  O   -0.207456  -0.001989
    13  O   -0.148802   0.015376
    14  H    0.199009  -0.000242
 Sum of Mulliken charges =  -0.00000   1.00000

 Dipole moment (field-independent basis, Debye):
    X=             -0.5557    Y=              0.9089    Z=              1.1001  Tot=              1.5314
 Quadrupole moment (field-independent basis, Debye-Ang):
   XX=            -37.2910   YY=            -39.0926   ZZ=            -41.3745
   XY=             -4.6872   XZ=             -3.1957   YZ=             -1.6099

 Normal termination of Gaussian 16 at Tue May 20 11:51:53 2025.
