 Gaussian 16, Revision C.01,
 Gaussian 16:  ES64L-G16RevC.01  3-Jul-2019

 -------------------------------------------------------
 #P wb97xd/def2svp # SCF=(xqc) # POpt=() # int=ultrafine
 -------------------------------------------------------

 --------
 comment:
 --------
 Symbolic Z-matrix:
 Charge =  0 Multiplicity = 2

 SCF Done:  E(UwB97XD) =  -344.593684560     A.U. after   20 cycles
 SCF Done:  E(UwB97XD) =  -344.593708936     A.U. after   13 cycles
 SCF Done:  E(UwB97XD) =  -344.593716162     A.U. after   13 cycles
 SCF Done:  E(UwB97XD) =  -344.593717759     A.U. after   12 cycles
 SCF Done:  E(UwB97XD) =  -344.593718891     A.U. after   13 cycles
 SCF Done:  E(UwB97XD) =  -344.593719868     A.U. after   11 cycles
 SCF Done:  E(UwB97XD) =  -344.593719943     A.U. after    9 cycles
 SCF Done:  E(UwB97XD) =  -344.593719851     A.U. after   11 cycles
 SCF Done:  E(UwB97XD) =  -344.593719963     A.U. after    7 cycles
 Optimization completed.
    -- Stationary point found.

                         Standard orientation:
 ---------------------------------------------------------------------
 Center     Atomic      Atomic             Coordinates (Angstroms)
 Number     Number       Type             X           Y           Z
 ---------------------------------------------------------------------
      1          6           0        0.277223   -0.059620    0.530351
      2          6           0       -0.457379    1.167960    0.175985
      3          8           0        1.636407   -0.104008    0.578370
      4          6           0       -1.755509    0.803277   -0.242539
      5          1           0       -0.048508    2.171518    0.292407
      6          1           0       -0.196009    0.569377    1.348769
      7          6           0       -1.878790   -0.568205   -0.280589
      8          1           0       -2.555962    1.513751   -0.450862
      9          6           0       -0.579158   -1.232795    0.091244
     10          1           0       -2.782904   -1.114986   -0.548237
     11          1           0       -0.091014   -1.709734   -0.782388
     12          1           0       -0.682979   -2.018632    0.858618
     13          8           0        2.148970   -0.018446   -0.773769
     14          1           0        2.436040    0.904648   -0.801823
 ---------------------------------------------------------------------

 The electronic state is 2-A.
 Alpha  occ. eigenvalues --  -19.31955 -19.30402 -10.35862 -10.32098 -10.30605
 Alpha  occ. eigenvalues --  -10.30281 -10.30088  -1.22187  -1.02777  -0.96278
 Alpha  occ. eigenvalues --   -0.83450  -0.79860  -0.67782  -0.64515  -0.63035
 Alpha  occ. eigenvalues --   -0.59224  -0.57660  -0.53717  -0.50180  -0.49274
 Alpha  occ. eigenvalues --   -0.47947  -0.45802  -0.43131  -0.38663  -0.36655
 Alpha  occ. eigenvalues --   -0.35893  -0.22890
 Alpha virt. eigenvalues --    0.08490   0.11974   0.14895   0.16157   0.16819
 Alpha virt. eigenvalues --    0.18896   0.20590   0.21424   0.23215   0.26009
 Alpha virt. eigenvalues --    0.30038   0.31652   0.37784   0.41404   0.46827

  Beta  occ. eigenvalues --  -19.31947 -19.30255 -10.35598 -10.31426 -10.30651
  Beta  occ. eigenvalues --  -10.30554 -10.29488  -1.21915  -1.02198  -0.95510
  Beta  occ. eigenvalues --   -0.82048  -0.79614  -0.66475  -0.64028  -0.62289
  Beta  occ. eigenvalues --   -0.58657  -0.56945  -0.53321  -0.49455  -0.48695
  Beta  occ. eigenvalues --   -0.47421  -0.45376  -0.41274  -0.38488  -0.36374
  Beta  occ. eigenvalues --   -0.33739
  Beta virt. eigenvalues --    0.01090   0.09784   0.13153   0.15526   0.16433
  Beta virt. eigenvalues --    0.17410   0.19223   0.20883   0.21720   0.23534
  Beta virt. eigenvalues --    0.26446   0.30516   0.32369   0.38307   0.41893

 Mulliken charges and spin densities:
               1          2
     1  C    0.071566   0.171613
     2  C   -0.094494   0.557943
     3  O   -0.217124  -0.016540
     4  C   -0.008196  -0.253721
     5  H    0.043675  -0.026715
     6  H    0.071063  -0.026673
     7  C   -0.152638   0.535429
     8  H    0.024582   0.008846
     9  C    0.088889  -0.061024
    10  H    0.029861  -0.023976
    11  H    0.066105   0.052616
    12  H    0.056286   0.028414
    13  O   -0.174825   0.055461
    14  H    0.195249  -0.001675
 Sum of Mulliken charges =  -0.00000   1.00000

 Dipole moment (field-independent basis, Debye):
    X=             -0.9670    Y=              1.7639    Z=              0.0946  Tot=              2.0138
 Quadrupole moment (field-independent basis, Debye-Ang):
   XX=            -41.8657   YY=            -36.7252   ZZ=            -42.9976
   XY=              4.6236   XZ=             -1.1081   YZ=             -0.4123

 Normal termination of Gaussian 16 at Fri Sep 19 15:25:57 2025.
