 Gaussian 16, Revision C.01,
 Gaussian 16:  ES64L-G16RevC.01  3-Jul-2019

 ----------------------------------------------------------------------
 #P wb97xd/def2svp # SCF=(xqc) # POpt=(CALCFC,TS,NOEIGEN,MAXCYCLES=60)
 # int=ultrafine
 ----------------------------------------------------------------------

 --------
 comment:
 --------
 Symbolic Z-matrix:
 Charge =  0 Multiplicity = 2

 SCF Done:  E(UwB97XD) =  -345.815380624     A.U. after   20 cycles

 The electronic state is 2-A.
 Alpha  occ. eigenvalues --  -19.30693 -19.29830 -10.35532 -10.30443 -10.30042
 Alpha  occ. eigenvalues --  -10.29824 -10.29695  -1.20621  -1.01341  -0.90917
 Alpha  occ. eigenvalues --   -0.81870  -0.76583  -0.67518  -0.63798  -0.59852
 Alpha  occ. eigenvalues --   -0.58301  -0.57721  -0.53451  -0.50972  -0.49125
 Alpha  occ. eigenvalues --   -0.47849  -0.46326  -0.43226  -0.42279  -0.38604
 Alpha  occ. eigenvalues --   -0.35804  -0.34947  -0.25373
 Alpha virt. eigenvalues --    0.07548   0.12635   0.14030   0.15926   0.16579
 Alpha virt. eigenvalues --    0.18519   0.20523   0.21249   0.22603   0.23390
 Alpha virt. eigenvalues --    0.27011   0.29486   0.30297   0.32972   0.38351

  Beta  occ. eigenvalues --  -19.30780 -19.29472 -10.34565 -10.30736 -10.29846
  Beta  occ. eigenvalues --  -10.29734 -10.29386  -1.20048  -1.00408  -0.90226
  Beta  occ. eigenvalues --   -0.81342  -0.75848  -0.66403  -0.62873  -0.59063
  Beta  occ. eigenvalues --   -0.57765  -0.57244  -0.52855  -0.50231  -0.48429
  Beta  occ. eigenvalues --   -0.47360  -0.45570  -0.42733  -0.41980  -0.38248
  Beta  occ. eigenvalues --   -0.34764  -0.33678
  Beta virt. eigenvalues --    0.00754   0.09220   0.13774   0.15501   0.16209
  Beta virt. eigenvalues --    0.16775   0.18570   0.20628   0.21680   0.22712
  Beta virt. eigenvalues --    0.23676   0.27272   0.29899   0.30967   0.33920

 Mulliken charges and spin densities:
               1          2
     1  C   -0.117339   0.576935
     2  C    0.009191  -0.029527
     3  H    0.043842  -0.024861
     4  C   -0.021092  -0.027722
     5  H    0.049063   0.008212
     6  H    0.049178   0.015782
     7  C    0.026412   0.668556
     8  H    0.032341   0.000884
     9  H    0.057786   0.014420
    10  C   -0.051365  -0.291141
    11  O   -0.226609  -0.052424
    12  H    0.025788  -0.026495
    13  H    0.053360   0.012967
    14  H    0.061303   0.034290
    15  O   -0.183874   0.118466
    16  H    0.192017   0.001658
 Sum of Mulliken charges =  -0.00000   1.00000

 Dipole moment (field-independent basis, Debye):
    X=             -0.1394    Y=             -0.3255    Z=              1.2695  Tot=              1.3180
 Quadrupole moment (field-independent basis, Debye-Ang):
   XX=            -39.5026   YY=            -41.4737   ZZ=            -41.5055
   XY=              3.1637   XZ=             -1.5737   YZ=             -0.3471

  Exact polarizability:       0.000       0.000       0.000       0.000       0.000       0.000
 Approx polarizability:      82.627      -5.056      66.800      -3.709      -4.279      65.857

 Optimization completed.
    -- Stationary point found.

                         Standard orientation:
 ---------------------------------------------------------------------
 Center     Atomic      Atomic             Coordinates (Angstroms)
 Number     Number       Type             X           Y           Z
 ---------------------------------------------------------------------
      1          6           0        1.689583   -0.309870   -0.678926
      2          6           0        1.255080    1.108639   -0.436120
      3          1           0        1.839975   -0.654118   -1.705631
      4          6           0        0.199977    1.081715    0.698313
      5          1           0        0.813253    1.506684   -1.362214
      6          1           0        2.088316    1.784682   -0.178040
      7          6           0       -0.473354   -0.264486    0.734164
      8          1           0        0.669781    1.257570    1.678956
      9          1           0       -0.549838    1.877990    0.560069
     10          6           0        1.481353   -1.218729    0.327556
     11          8           0       -1.193117   -0.629947   -0.356574
     12          1           0       -0.865411   -0.631747    1.696193
     13          1           0        1.531503   -2.292985    0.124960
     14          1           0        1.625245   -0.947864    1.378297
     15          8           0       -2.431106    0.161928   -0.375345
     16          1           0       -3.074877   -0.539672   -0.207161
 ---------------------------------------------------------------------

 1\1\GINC-CSED-0032\FTS\UwB97XD\def2SVP\C5H9O2(2)\COPAN\14-May-2025\1\\
 #P wb97xd/def2svp # SCF=(xqc) # POpt=(CALCFC,TS,NOEIGEN,MAXCYCLES=60)
 # int=ultrafine\\comment:\\0,2\C\C,1,R1\H,1,R2,2,A2\C,2,R3,1,A3,3,D3,0
 \H,2,R4,1,A4,4,D4,0\H,2,R5,1,A5,4,D5,0\C,4,R6,2,A6,1,D6,0\H,4,R7,2,A7,
 7,D7,0\H,4,R8,2,A8,7,D8,0\C,7,R9,4,A9,2,D9,0\O,7,R10,4,A10,10,D10,0\H,
 7,R11,4,A11,10,D11,0\H,10,R12,7,A12,4,D12,0\H,10,R13,7,A13,13,D13,0\O,
 11,R14,7,A14,10,D14,0\H,15,R15,11,A15,7,D15,0\\R1=1.503302\R2=1.093274
 \R3=1.549486\R4=1.100591\R5=1.103595\R6=1.505628\R7=1.1015\R8=1.102446
 \R9=2.212869\R10=1.356956\R11=1.101857\R12=1.094343\R13=1.094591\R14=1

 Normal termination of Gaussian 16 at Wed May 14 13:28:15 2025.
