 Gaussian 16, Revision C.01,
 Gaussian 16:  ES64L-G16RevC.01  3-Jul-2019

 ----------------------------------------------------------------------
 #P udsdpbep86/jun-cc-pvtz # SCF=(xqc) # POpt=(CALCFC,TS,NOEIGEN,MAXCYC
 LES=60) # Freq # int=ultrafine # empiricaldispersion=gd3bj iop(3/125=0
 079905785,3/78=0429604296,3/76=0310006900,3/74=1004,3/174=0437700,3/17
 5=-1,3/176=0,3/177=1,3/178=5500000)
 ----------------------------------------------------------------------

 --------
 comment:
 --------
 Symbolic Z-matrix:
 Charge =  0 Multiplicity = 2

 SCF Done:  E(UPBE+HF-P86) =  -270.110070401     A.U. after   23 cycles
 E2 =    -0.5472224237D+00 EUMP2 =    -0.27065729282502D+03
 E2 =    -0.5472224237D+00 EUMP2 =    -0.27065729282502D+03
 SCF Done:  E(UPBE+HF-P86) =  -270.111938472     A.U. after   20 cycles
 E2 =    -0.5461974284D+00 EUMP2 =    -0.27065813590001D+03
 SCF Done:  E(UPBE+HF-P86) =  -270.112574899     A.U. after   20 cycles
 E2 =    -0.5457023964D+00 EUMP2 =    -0.27065827729582D+03
 SCF Done:  E(UPBE+HF-P86) =  -270.113482060     A.U. after   20 cycles
 E2 =    -0.5449376840D+00 EUMP2 =    -0.27065841974443D+03
 SCF Done:  E(UPBE+HF-P86) =  -270.113346075     A.U. after   20 cycles
 E2 =    -0.5449750456D+00 EUMP2 =    -0.27065832112081D+03
 SCF Done:  E(UPBE+HF-P86) =  -270.113535538     A.U. after   19 cycles
 E2 =    -0.5448271001D+00 EUMP2 =    -0.27065836263837D+03
 SCF Done:  E(UPBE+HF-P86) =  -270.113521212     A.U. after   19 cycles
 E2 =    -0.5448390830D+00 EUMP2 =    -0.27065836029466D+03
 SCF Done:  E(UPBE+HF-P86) =  -270.113535817     A.U. after   19 cycles
 E2 =    -0.5448250542D+00 EUMP2 =    -0.27065836087149D+03
 SCF Done:  E(UPBE+HF-P86) =  -270.113568040     A.U. after   19 cycles
 E2 =    -0.5447929701D+00 EUMP2 =    -0.27065836100979D+03
 SCF Done:  E(UPBE+HF-P86) =  -270.113561418     A.U. after   17 cycles
 E2 =    -0.5447997043D+00 EUMP2 =    -0.27065836112281D+03
 SCF Done:  E(UPBE+HF-P86) =  -270.113562918     A.U. after   12 cycles
 E2 =    -0.5447982497D+00 EUMP2 =    -0.27065836116806D+03
 SCF Done:  E(UPBE+HF-P86) =  -270.113561434     A.U. after   13 cycles
 E2 =    -0.5447996988D+00 EUMP2 =    -0.27065836113291D+03
 SCF Done:  E(UPBE+HF-P86) =  -270.113561285     A.U. after   13 cycles
 E2 =    -0.5447999015D+00 EUMP2 =    -0.27065836118663D+03
 Optimization completed.
    -- Stationary point found.
 Normal termination of Gaussian 16 at Sat Aug 30 00:01:25 2025.

 ----------------------------------------------------------------------
 #P Geom=AllCheck Guess=TCheck SCRF=Check Test GenChk UDSDPBEP86(FC)/Ju
 n-CC-pVTZ Freq
 ----------------------------------------------------------------------

 Structure from the checkpoint file:  "/scratch/gtemp/avcopan/Gau-2100170.chk"
 --------
 comment:
 --------
 Charge =  0 Multiplicity = 2

                         Standard orientation:
 ---------------------------------------------------------------------
 Center     Atomic      Atomic             Coordinates (Angstroms)
 Number     Number       Type             X           Y           Z
 ---------------------------------------------------------------------
      1          6           0       -0.259549    0.671949    0.824533
      2          6           0       -0.261282   -0.668894    0.825551
      3          1           0       -0.929648    1.291149    1.406454
      4          6           0        0.761330   -1.230402   -0.131721
      5          1           0       -0.932758   -1.285493    1.408627
      6          6           0        1.639871   -0.001939   -0.459504
      7          1           0        1.337747   -2.052430    0.299021
      8          1           0        0.267370   -1.633321   -1.024874
      9          6           0        0.764636    1.229355   -0.133490
     10          1           0        2.510453   -0.002630    0.200075
     11          1           0        2.005448   -0.003161   -1.487208
     12          1           0        1.343250    2.050418    0.296156
     13          1           0        0.271938    1.632401   -1.027292
     14          8           0       -2.487131   -0.000110   -0.543840
     15          1           0       -1.846785    0.003527   -1.272451
 ---------------------------------------------------------------------

 SCF Done:  E(UDSDPBEP86) =  -270.130906139     A.U. after    7 cycles
 E2(DSDPBEP86) =    -0.5311702336D+00 E(DSDPBEP86) =    -0.27066207637257D+03
 E2(DSDPBEP86) =    -0.5311702336D+00 E(DSDPBEP86) =    -0.27066207637257D+03

 The electronic state is 2-A.
 Alpha  occ. eigenvalues --  -20.06260 -10.81785 -10.81776 -10.81716 -10.81585
 Alpha  occ. eigenvalues --  -10.81493  -1.23103  -1.02963  -0.87446  -0.86972
 Alpha  occ. eigenvalues --   -0.71393  -0.65677  -0.61515  -0.59127  -0.58119
 Alpha  occ. eigenvalues --   -0.54758  -0.50293  -0.47985  -0.46127  -0.44364
 Alpha  occ. eigenvalues --   -0.44293  -0.43643  -0.43058  -0.30757
 Alpha virt. eigenvalues --    0.03479   0.04357   0.04676   0.04806   0.06439
 Alpha virt. eigenvalues --    0.06666   0.08362   0.08385   0.08712   0.08775
 Alpha virt. eigenvalues --    0.11733   0.11801   0.12093   0.13266   0.13631

  Beta  occ. eigenvalues --  -20.02893 -10.81788 -10.81783 -10.81635 -10.81502
  Beta  occ. eigenvalues --  -10.81492  -1.11230  -1.02743  -0.87216  -0.86938
  Beta  occ. eigenvalues --   -0.71351  -0.65557  -0.61353  -0.58099  -0.55283
  Beta  occ. eigenvalues --   -0.50243  -0.47889  -0.44413  -0.44339  -0.43747
  Beta  occ. eigenvalues --   -0.43166  -0.42135  -0.31110
  Beta virt. eigenvalues --    0.00496   0.03524   0.04364   0.04800   0.04926
  Beta virt. eigenvalues --    0.06445   0.06714   0.08400   0.08538   0.09041
  Beta virt. eigenvalues --    0.09155   0.11734   0.11801   0.12162   0.13289

 Mulliken charges and spin densities:
               1          2
     1  C   -0.171390   0.028849
     2  C   -0.171339   0.027450
     3  H    0.166103  -0.001430
     4  C   -0.371970  -0.007206
     5  H    0.166456  -0.001336
     6  C   -0.330286   0.001782
     7  H    0.198172   0.000771
     8  H    0.183628   0.001920
     9  C   -0.371871  -0.007376
    10  H    0.182531  -0.000033
    11  H    0.185710  -0.000030
    12  H    0.198220   0.000813
    13  H    0.183510   0.002001
    14  O   -0.275820   0.996349
    15  H    0.228346  -0.042524
 Sum of Mulliken charges =  -0.00000   1.00000

 Dipole moment (field-independent basis, Debye):
    X=              1.5700    Y=              0.0042    Z=             -0.9939  Tot=              1.8582
 Quadrupole moment (field-independent basis, Debye-Ang):
   XX=            -43.3830   YY=            -37.1505   ZZ=            -35.7725
   XY=             -0.0075   XZ=              0.5803   YZ=             -0.0105

  Exact polarizability:      76.379       0.017      71.412       1.913       0.000      61.131
 Approx polarizability:      66.042       0.024      75.505      -0.310      -0.012      63.899

                      1                      2                      3
                      A                      A                      A
 Frequencies --     26.0844                48.2643                91.5105
 Red. masses --      1.9951                 5.5948                 4.7141
 Frc consts  --      0.0008                 0.0077                 0.0233
 IR Inten    --     39.7118                 2.4584                 0.2212

                      4                      5                      6
                      A                      A                      A
 Frequencies --    116.6701               167.6435               404.0861
 Red. masses --      1.4236                 1.6305                 2.0810
 Frc consts  --      0.0114                 0.0270                 0.2002
 IR Inten    --     28.9742                 0.1112                 0.0508

                      7                      8                      9
                      A                      A                      A
 Frequencies --    416.4450               608.5933               731.8133
 Red. masses --      1.0392                 1.6516                 1.2986
 Frc consts  --      0.1062                 0.3604                 0.4097
 IR Inten    --    128.4443                 7.0211                55.5758

                     10                     11                     12
                      A                      A                      A
 Frequencies --    782.1580               832.0184               895.1668
 Red. masses --      4.9621                 1.6485                 1.4882
 Frc consts  --      1.7886                 0.6724                 0.7026
 IR Inten    --      0.1811                 2.9562                 1.5325

                     13                     14                     15
                      A                      A                      A
 Frequencies --    918.4908               926.4382               975.7513
 Red. masses --      2.9634                 1.8556                 1.2326
 Frc consts  --      1.4730                 0.9383                 0.6914
 IR Inten    --      0.5119                 8.7040                 0.0091

                     16                     17                     18
                      A                      A                      A
 Frequencies --    982.5915              1048.9150              1073.8374
 Red. masses --      2.5305                 1.8120                 1.7159
 Frc consts  --      1.4395                 1.1746                 1.1658
 IR Inten    --      1.1154                 2.0313                17.8136

                     19                     20                     21
                      A                      A                      A
 Frequencies --   1132.7156              1154.0199              1229.9903
 Red. masses --      1.0995                 1.1994                 1.4626
 Frc consts  --      0.8312                 0.9411                 1.3037
 IR Inten    --      0.1210                 1.1829                 0.0057

                     22                     23                     24
                      A                      A                      A
 Frequencies --   1238.1848              1311.9320              1329.6903
 Red. masses --      1.2210                 1.3361                 1.2402
 Frc consts  --      1.1029                 1.3549                 1.2919
 IR Inten    --      4.4480                 1.6485                 0.2093

                     25                     26                     27
                      A                      A                      A
 Frequencies --   1332.9074              1388.2775              1491.2976
 Red. masses --      1.7238                 1.6805                 1.0851
 Frc consts  --      1.8044                 1.9083                 1.4218
 IR Inten    --      1.4652                 2.0958                 1.6525

                     28                     29                     30
                      A                      A                      A
 Frequencies --   1497.8333              1515.7539              1644.1664
 Red. masses --      1.0853                 1.1075                 5.6890
 Frc consts  --      1.4346                 1.4992                 9.0611
 IR Inten    --      3.1460                 3.4170                28.4078

                     31                     32                     33
                      A                      A                      A
 Frequencies --   3020.9855              3023.5280              3065.5951
 Red. masses --      1.0704                 1.0692                 1.0671
 Frc consts  --      5.7558                 5.7589                 5.9086
 IR Inten    --     23.7171                40.8245                17.1432

                     34                     35                     36
                      A                      A                      A
 Frequencies --   3086.1431              3089.5404              3121.7045
 Red. masses --      1.0926                 1.0866                 1.1049
 Frc consts  --      6.1311                 6.1108                 6.3440
 IR Inten    --     26.1022                31.6515                32.0717

                     37                     38                     39
                      A                      A                      A
 Frequencies --   3207.7647              3230.8279              3777.7171
 Red. masses --      1.0863                 1.1027                 1.0672
 Frc consts  --      6.5860                 6.7815                 8.9732
 IR Inten    --      2.4215                 7.7282                 7.3792

 - Thermochemistry -
 -------------------
 Temperature   298.150 Kelvin.  Pressure   1.00000 Atm.
 Atom     1 has atomic number  6 and mass  12.00000

 Molecular mass:    85.06534 amu.
 Principal axes and moments of inertia in atomic units:
                           1         2         3
     Eigenvalues --   351.55276 714.87273 822.50173
           X            0.99981  -0.00005  -0.01924
           Y            0.00005   1.00000  -0.00015
           Z            0.01924   0.00015   0.99981
 This molecule is an asymmetric top.
 Rotational symmetry number  1.
 Rotational temperatures (Kelvin)      0.24638     0.12116     0.10531
 Rotational constants (GHZ):           5.13363     2.52456     2.19421
 Zero-point vibrational energy     334577.9 (Joules/Mol)
                                   79.96603 (Kcal/Mol)
 Warning -- explicit consideration of   8 degrees of freedom as
           vibrations may cause significant error
 Vibrational temperatures:     37.53    69.44   131.66   167.86   241.20
          (Kelvin)            581.39   599.17   875.63  1052.92  1125.35
                             1197.09  1287.95  1321.50  1332.94  1403.89
                             1413.73  1509.15  1545.01  1629.73  1660.38
                             1769.68  1781.47  1887.58  1913.13  1917.76
                             1997.42  2145.64  2155.05  2180.83  2365.59
                             4346.52  4350.18  4410.71  4440.27  4445.16
                             4491.44  4615.26  4648.44  5435.29

 Zero-point correction=                           0.127434 (Hartree/Particle)
 Thermal correction to Energy=                    0.135486
 Thermal correction to Enthalpy=                  0.136430
 Thermal correction to Gibbs Free Energy=         0.092861
 Sum of electronic and zero-point Energies=           -270.534642
 Sum of electronic and thermal Energies=              -270.526591
 Sum of electronic and thermal Enthalpies=            -270.525647
 Sum of electronic and thermal Free Energies=         -270.569216

                     E (Thermal)             CV                S
                      KCal/Mol        Cal/Mol-Kelvin    Cal/Mol-Kelvin
 Total                   85.019             26.181             91.699
 Electronic               0.000              0.000              1.377
 Translational            0.889              2.981             39.236
 Rotational               0.889              2.981             26.827
 Vibrational             83.241             20.219             24.259
 Vibration     1          0.593              1.985              6.107
 Vibration     2          0.595              1.978              4.887
 Vibration     3          0.602              1.955              3.628
 Vibration     4          0.608              1.936              3.155
 Vibration     5          0.624              1.882              2.462
 Vibration     6          0.769              1.461              0.948
 Vibration     7          0.780              1.435              0.904
 Vibration     8          0.967              1.014              0.435

                       ! Non-Optimized Parameters !
 Normal termination of Gaussian 16 at Sat Aug 30 05:56:14 2025.
