 Gaussian 16, Revision C.01,
 Gaussian 16:  ES64L-G16RevC.01  3-Jul-2019

 ----------------------------------------------------------------------
 #P wb97xd/def2svp # SCF=(xqc) # POpt=(CALCFC,TS,NOEIGEN,MAXCYCLES=60)
 # int=ultrafine
 ----------------------------------------------------------------------

 --------
 comment:
 --------
 Symbolic Z-matrix:
 Charge =  0 Multiplicity = 2

 SCF Done:  E(UwB97XD) =  -345.806903321     A.U. after   22 cycles

  Exact polarizability:       0.000       0.000       0.000       0.000       0.000       0.000
 Approx polarizability:      69.157       3.384      73.510       2.918      -0.792      67.716

 SCF Done:  E(UwB97XD) =  -345.806903339     A.U. after   10 cycles
 Optimization completed.
    -- Stationary point found.

                         Standard orientation:
 ---------------------------------------------------------------------
 Center     Atomic      Atomic             Coordinates (Angstroms)
 Number     Number       Type             X           Y           Z
 ---------------------------------------------------------------------
      1          6           0        0.358888    1.292165   -0.283963
      2          6           0        1.156616    0.699146    0.840120
      3          1           0        0.914299    1.914717   -0.994228
      4          6           0        1.770079   -0.579552    0.198189
      5          1           0        0.520915    0.426744    1.692600
      6          1           0        1.939341    1.382211    1.200269
      7          6           0        0.762357   -1.196659   -0.740954
      8          1           0        2.090600   -1.293345    0.976227
      9          1           0        2.673502   -0.295657   -0.364589
     10          6           0       -0.645558    0.551104   -0.880218
     11          1           0        0.020558   -1.878793   -0.316445
     12          1           0        1.067519   -1.433848   -1.764226
     13          1           0       -0.930455    0.771629   -1.914582
     14          8           0       -1.754232   -0.035794   -0.335568
     15          8           0       -1.569432   -0.346052    1.034291
     16          1           0       -2.121257   -1.136116    1.096151
 ---------------------------------------------------------------------

 The electronic state is 2-A.
 Alpha  occ. eigenvalues --  -19.33143 -19.32103 -10.35935 -10.30326 -10.29384
 Alpha  occ. eigenvalues --  -10.29193 -10.28922  -1.24352  -1.02337  -0.90626
 Alpha  occ. eigenvalues --   -0.81462  -0.76320  -0.68449  -0.65580  -0.62606
 Alpha  occ. eigenvalues --   -0.56239  -0.55675  -0.53274  -0.52752  -0.50599
 Alpha  occ. eigenvalues --   -0.47383  -0.44708  -0.43693  -0.42481  -0.40443
 Alpha  occ. eigenvalues --   -0.38507  -0.31268  -0.26080
 Alpha virt. eigenvalues --    0.10222   0.10756   0.13951   0.15442   0.17759
 Alpha virt. eigenvalues --    0.19251   0.20017   0.22336   0.22886   0.24684
 Alpha virt. eigenvalues --    0.27376   0.28688   0.31218   0.34843   0.36470

  Beta  occ. eigenvalues --  -19.33190 -19.32108 -10.36243 -10.29390 -10.29372
  Beta  occ. eigenvalues --  -10.28909 -10.28500  -1.24436  -1.02439  -0.89569
  Beta  occ. eigenvalues --   -0.80293  -0.75261  -0.67952  -0.64700  -0.62410
  Beta  occ. eigenvalues --   -0.56062  -0.55338  -0.53172  -0.51667  -0.50007
  Beta  occ. eigenvalues --   -0.46927  -0.44064  -0.43073  -0.42034  -0.40336
  Beta  occ. eigenvalues --   -0.38489  -0.28996
  Beta virt. eigenvalues --    0.01268   0.10778   0.12194   0.14192   0.15551
  Beta virt. eigenvalues --    0.18068   0.19762   0.20148   0.22564   0.23216
  Beta virt. eigenvalues --    0.24857   0.27639   0.28932   0.31966   0.35338

 Mulliken charges and spin densities:
               1          2
     1  C   -0.123410   0.570081
     2  C   -0.014182  -0.019950
     3  H    0.034304  -0.025615
     4  C   -0.033491  -0.016915
     5  H    0.054237   0.005290
     6  H    0.030896   0.000681
     7  C   -0.124990   0.777216
     8  H    0.037651   0.008075
     9  H    0.026386   0.000595
    10  C    0.131046  -0.236618
    11  H    0.034623  -0.025650
    12  H    0.052451  -0.031870
    13  H    0.054460   0.010736
    14  O   -0.221996  -0.014913
    15  O   -0.139723  -0.001167
    16  H    0.201736   0.000024
 Sum of Mulliken charges =  -0.00000   1.00000

 Dipole moment (field-independent basis, Debye):
    X=              0.1098    Y=             -1.4060    Z=             -0.1778  Tot=              1.4214
 Quadrupole moment (field-independent basis, Debye-Ang):
   XX=            -41.2009   YY=            -42.1510   ZZ=            -40.7683
   XY=              4.4168   XZ=             -1.4036   YZ=             -3.1750

 1\1\GINC-CSED-0034\FTS\UwB97XD\def2SVP\C5H9O2(2)\COPAN\16-May-2025\1\\
 #P wb97xd/def2svp # SCF=(xqc) # POpt=(CALCFC,TS,NOEIGEN,MAXCYCLES=60)
 # int=ultrafine\\comment:\\0,2\C\C,1,R1\H,1,R2,2,A2\C,2,R3,1,A3,3,D3,0
 \H,2,R4,1,A4,4,D4,0\H,2,R5,1,A5,4,D5,0\C,4,R6,2,A6,1,D6,0\H,4,R7,2,A7,
 7,D7,0\H,4,R8,2,A8,7,D8,0\C,7,R9,4,A9,2,D9,0\H,7,R10,4,A10,10,D10,0\H,
 7,R11,4,A11,10,D11,0\H,10,R12,7,A12,4,D12,0\O,10,R13,7,A13,13,D13,0\O,
 14,R14,10,A14,1,D14,0\H,15,R15,14,A15,10,D15,0\\R1=1.50053507\R2=1.095
 68616\R3=1.55675242\R4=1.09774364\R5=1.09952045\R6=1.5094092\R7=1.1034
 3861\R8=1.1015845\R9=2.24862031\R10=1.09351786\R11=1.09383167\R12=1.09

 Normal termination of Gaussian 16 at Fri May 16 09:56:13 2025.
