 Gaussian 16, Revision C.01,
 Gaussian 16:  ES64L-G16RevC.01  3-Jul-2019

 ----------------------------------------------------------------------
 #P wb97xd/def2svp # SCF=(xqc) # POpt=(CALCFC,TS,NOEIGEN,MAXCYCLES=60)
 # int=ultrafine
 ----------------------------------------------------------------------

 --------
 comment:
 --------
 Symbolic Z-matrix:
 Charge =  0 Multiplicity = 2

 SCF Done:  E(UwB97XD) =  -344.593719951     A.U. after   21 cycles

  Exact polarizability:       0.000       0.000       0.000       0.000       0.000       0.000
 Approx polarizability:      73.503       2.301      71.555       0.952       1.432      54.218

 SCF Done:  E(UwB97XD) =  -344.584804298     A.U. after   21 cycles
 SCF Done:  E(UwB97XD) =  -344.584143785     A.U. after   22 cycles
 SCF Done:  E(UwB97XD) =  -344.588061597     A.U. after   21 cycles
 SCF Done:  E(UwB97XD) =  -344.590501711     A.U. after   23 cycles
 SCF Done:  E(UwB97XD) =  -344.592679140     A.U. after   23 cycles
 SCF Done:  E(UwB97XD) =  -344.595553742     A.U. after   23 cycles
 SCF Done:  E(UwB97XD) =  -344.598652388     A.U. after   25 cycles
 SCF Done:  E(UwB97XD) =  -344.601233134     A.U. after   23 cycles
 SCF Done:  E(UwB97XD) =  -344.603016599     A.U. after   25 cycles
 SCF Done:  E(UwB97XD) =  -344.605315131     A.U. after   28 cycles
 SCF Done:  E(UwB97XD) =  -344.605442376     A.U. after   28 cycles
 SCF Done:  E(UwB97XD) =  -344.605451066     A.U. after   24 cycles
 SCF Done:  E(UwB97XD) =  -344.605455993     A.U. after   21 cycles
 SCF Done:  E(UwB97XD) =  -344.605459771     A.U. after   21 cycles
 SCF Done:  E(UwB97XD) =  -344.605461809     A.U. after   20 cycles
 SCF Done:  E(UwB97XD) =  -344.605463196     A.U. after   22 cycles
 SCF Done:  E(UwB97XD) =  -344.605463907     A.U. after   21 cycles
 SCF Done:  E(UwB97XD) =  -344.605464044     A.U. after   21 cycles
 SCF Done:  E(UwB97XD) =  -344.605464169     A.U. after   19 cycles
 Optimization completed.
    -- Stationary point found.

                         Standard orientation:
 ---------------------------------------------------------------------
 Center     Atomic      Atomic             Coordinates (Angstroms)
 Number     Number       Type             X           Y           Z
 ---------------------------------------------------------------------
      1          6           0        0.303389    0.186441    0.721847
      2          6           0       -0.499592    1.183756    0.007043
      3          8           0        1.559911    0.221763    0.916468
      4          6           0       -1.717139    0.639223   -0.462803
      5          1           0       -0.170799    2.221245   -0.088876
      6          1           0       -0.336797    0.572683    1.645329
      7          6           0       -1.718641   -0.711491   -0.222814
      8          1           0       -2.544660    1.211709   -0.881552
      9          6           0       -0.444862   -1.159730    0.343117
     10          1           0       -2.597473   -1.350767   -0.337287
     11          1           0        0.254809   -1.461577   -0.463738
     12          1           0       -0.501064   -1.959475    1.093755
     13          8           0        1.894372   -0.171231   -1.224609
     14          1           0        2.722792   -0.467271   -0.820840
 ---------------------------------------------------------------------

 The electronic state is 2-A.
 Alpha  occ. eigenvalues --  -19.23869 -19.19279 -10.37031 -10.36249 -10.35787
 Alpha  occ. eigenvalues --  -10.33569 -10.31768  -1.08038  -1.01430  -0.98171
 Alpha  occ. eigenvalues --   -0.83736  -0.80757  -0.67833  -0.65389  -0.61521
 Alpha  occ. eigenvalues --   -0.57359  -0.50987  -0.50162  -0.49353  -0.49160
 Alpha  occ. eigenvalues --   -0.47666  -0.46795  -0.41588  -0.39771  -0.35404
 Alpha  occ. eigenvalues --   -0.30674  -0.28803
 Alpha virt. eigenvalues --   -0.04517   0.08508   0.13418   0.15439   0.17940
 Alpha virt. eigenvalues --    0.18824   0.19517   0.20842   0.23896   0.25084
 Alpha virt. eigenvalues --    0.29362   0.33357   0.38529   0.41314   0.43696

  Beta  occ. eigenvalues --  -19.22001 -19.18873 -10.37045 -10.36150 -10.35669
  Beta  occ. eigenvalues --  -10.33622 -10.31794  -1.07161  -0.98016  -0.95593
  Beta  occ. eigenvalues --   -0.83510  -0.80646  -0.67810  -0.65224  -0.61441
  Beta  occ. eigenvalues --   -0.57042  -0.50857  -0.50039  -0.48822  -0.47399
  Beta  occ. eigenvalues --   -0.47003  -0.45606  -0.40576  -0.33176  -0.30606
  Beta  occ. eigenvalues --   -0.29457
  Beta virt. eigenvalues --   -0.04539   0.00906   0.08992   0.13456   0.15521
  Beta virt. eigenvalues --    0.17985   0.19018   0.19745   0.21090   0.24142
  Beta virt. eigenvalues --    0.25230   0.29415   0.33501   0.38780   0.41427

 Mulliken charges and spin densities:
               1          2
     1  C    0.114727  -0.004257
     2  C   -0.006374   0.110147
     3  O   -0.369236   0.116163
     4  C   -0.030085  -0.051627
     5  H    0.075247  -0.004547
     6  H    0.083959  -0.050148
     7  C   -0.037703   0.106963
     8  H    0.046265   0.001549
     9  C   -0.003614  -0.013726
    10  H    0.058907  -0.005053
    11  H    0.113049  -0.004272
    12  H    0.070332   0.000838
    13  O   -0.298630   0.817965
    14  H    0.183157  -0.019995
 Sum of Mulliken charges =  -0.00000   1.00000

 Dipole moment (field-independent basis, Debye):
    X=             -4.6285    Y=             -0.4134    Z=              0.1551  Tot=              4.6496
 Quadrupole moment (field-independent basis, Debye-Ang):
   XX=            -39.3759   YY=            -35.8074   ZZ=            -44.4497
   XY=             -1.8990   XZ=             -1.0470   YZ=             -0.4697

 Normal termination of Gaussian 16 at Fri Sep 19 16:28:55 2025.
