 Gaussian 16, Revision C.01,
 Gaussian 16:  ES64L-G16RevC.01  3-Jul-2019

 -------------------------------------------------------
 #P wb97xd/def2svp # SCF=(xqc) # POpt=() # int=ultrafine
 -------------------------------------------------------

 --------
 comment:
 --------
 Symbolic Z-matrix:
 Charge =  0 Multiplicity = 2

 SCF Done:  E(UwB97XD) =  -344.535550090     A.U. after   27 cycles
 SCF Done:  E(UwB97XD) =  -344.566170434     A.U. after   24 cycles
 SCF Done:  E(UwB97XD) =  -344.576364145     A.U. after   23 cycles
 SCF Done:  E(UwB97XD) =  -344.577140903     A.U. after   24 cycles
 SCF Done:  E(UwB97XD) =  -344.577534610     A.U. after   21 cycles
 SCF Done:  E(UwB97XD) =  -344.576493974     A.U. after   24 cycles
 SCF Done:  E(UwB97XD) =  -344.577094298     A.U. after   22 cycles
 SCF Done:  E(UwB97XD) =  -344.575013189     A.U. after   21 cycles
 SCF Done:  E(UwB97XD) =  -344.577539678     A.U. after   14 cycles
 SCF Done:  E(UwB97XD) =  -344.577314253     A.U. after   24 cycles
 SCF Done:  E(UwB97XD) =  -344.577614453     A.U. after   12 cycles
 SCF Done:  E(UwB97XD) =  -344.577614396     A.U. after   14 cycles
 SCF Done:  E(UwB97XD) =  -344.577614396     A.U. after   17 cycles
 SCF Done:  E(UwB97XD) =  -344.577614452     A.U. after   12 cycles
 SCF Done:  E(UwB97XD) =  -344.577614411     A.U. after   14 cycles
 SCF Done:  E(UwB97XD) =  -344.577614399     A.U. after   17 cycles
 SCF Done:  E(UwB97XD) =  -344.577614451     A.U. after   12 cycles
 SCF Done:  E(UwB97XD) =  -344.577614427     A.U. after   14 cycles
 SCF Done:  E(UwB97XD) =  -344.577614375     A.U. after   17 cycles
 SCF Done:  E(UwB97XD) =  -344.577614450     A.U. after   12 cycles
 Optimization completed.
    -- Stationary point found.

                         Standard orientation:
 ---------------------------------------------------------------------
 Center     Atomic      Atomic             Coordinates (Angstroms)
 Number     Number       Type             X           Y           Z
 ---------------------------------------------------------------------
      1          6           0        1.179236   -0.412324   -0.818343
      2          6           0        0.982460   -1.150730    0.495026
      3          6           0        1.307333    0.986443   -0.434405
      4          1           0        1.524383   -0.850030   -1.756122
      5          6           0       -0.180232   -0.213110    0.797762
      6          1           0        0.652626   -2.192730    0.384419
      7          1           0        1.845647   -1.081131    1.175068
      8          8           0       -0.800521   -0.372789   -0.481043
      9          1           0       -0.862594   -0.393546    1.634802
     10          8           0       -2.395804    0.142142   -0.125832
     11          6           0        0.518970    1.149631    0.663113
     12          1           0        1.844479    1.756188   -0.989122
     13          1           0        0.311675    2.058023    1.226548
     14          1           0       -2.592209    0.388946   -1.039516
 ---------------------------------------------------------------------

 The electronic state is 2-A.
 Alpha  occ. eigenvalues --  -19.29240 -19.26362 -10.35609 -10.34206 -10.31078
 Alpha  occ. eigenvalues --  -10.30976 -10.30775  -1.12953  -1.02958  -0.92432
 Alpha  occ. eigenvalues --   -0.81506  -0.78292  -0.65725  -0.63092  -0.62462
 Alpha  occ. eigenvalues --   -0.57542  -0.53061  -0.50436  -0.49625  -0.46892
 Alpha  occ. eigenvalues --   -0.46440  -0.45561  -0.43091  -0.40067  -0.36910
 Alpha  occ. eigenvalues --   -0.32377  -0.26350
 Alpha virt. eigenvalues --    0.01864   0.09346   0.15010   0.17931   0.18246
 Alpha virt. eigenvalues --    0.19325   0.20420   0.21325   0.21965   0.26060
 Alpha virt. eigenvalues --    0.27837   0.28615   0.31921   0.37921   0.41698

  Beta  occ. eigenvalues --  -19.29447 -19.25316 -10.35593 -10.33440 -10.31107
  Beta  occ. eigenvalues --  -10.31041 -10.30562  -1.12859  -1.00577  -0.91865
  Beta  occ. eigenvalues --   -0.80974  -0.77152  -0.65005  -0.63055  -0.61504
  Beta  occ. eigenvalues --   -0.56532  -0.52419  -0.49984  -0.49244  -0.46320
  Beta  occ. eigenvalues --   -0.45670  -0.44389  -0.41944  -0.38798  -0.35367
  Beta  occ. eigenvalues --   -0.31753
  Beta virt. eigenvalues --   -0.01093   0.04992   0.11899   0.15237   0.18108
  Beta virt. eigenvalues --    0.18625   0.19671   0.20483   0.21512   0.22129
  Beta virt. eigenvalues --    0.26386   0.28219   0.29099   0.32344   0.38294

 Mulliken charges and spin densities:
               1          2
     1  C   -0.062021   0.626967
     2  C    0.054542  -0.039546
     3  C   -0.000074  -0.237936
     4  H    0.045256  -0.023820
     5  C    0.099016  -0.005356
     6  H    0.052147   0.000229
     7  H    0.055284   0.031384
     8  O   -0.292589  -0.153134
     9  H    0.052846  -0.002117
    10  O   -0.256040   0.441969
    11  C    0.000309   0.375015
    12  H    0.037113   0.010875
    13  H    0.035863  -0.016353
    14  H    0.178348  -0.008179
 Sum of Mulliken charges =   0.00000   1.00000

 Dipole moment (field-independent basis, Debye):
    X=              2.0119    Y=              0.4110    Z=             -0.3951  Tot=              2.0911
 Quadrupole moment (field-independent basis, Debye-Ang):
   XX=            -42.2776   YY=            -39.1369   ZZ=            -37.2722
   XY=             -1.5884   XZ=              0.9387   YZ=             -0.7670

 Normal termination of Gaussian 16 at Mon May 26 12:03:11 2025.
