 Gaussian 16, Revision C.01,
 Gaussian 16:  ES64L-G16RevC.01  3-Jul-2019

 ----------------------------------------------------------------------
 #P wb97xd/def2svp # SCF=(xqc) # POpt=(CALCFC,TS,NOEIGEN,MAXCYCLES=60)
 # int=ultrafine
 ----------------------------------------------------------------------

 --------
 comment:
 --------
 Symbolic Z-matrix:
 Charge =  0 Multiplicity = 2

 SCF Done:  E(UwB97XD) =  -345.829694814     A.U. after   23 cycles

  Exact polarizability:       0.000       0.000       0.000       0.000       0.000       0.000
 Approx polarizability:     100.583      -6.735      59.427      -5.041       2.298      63.695

 SCF Done:  E(UwB97XD) =  -345.829781829     A.U. after   19 cycles
 SCF Done:  E(UwB97XD) =  -345.829782330     A.U. after   14 cycles
 SCF Done:  E(UwB97XD) =  -345.829782315     A.U. after   12 cycles
 Optimization completed.
    -- Stationary point found.

                         Standard orientation:
 ---------------------------------------------------------------------
 Center     Atomic      Atomic             Coordinates (Angstroms)
 Number     Number       Type             X           Y           Z
 ---------------------------------------------------------------------
      1          6           0        1.132004   -0.512773   -0.816660
      2          6           0        0.961273   -1.203092    0.507949
      3          6           0        1.282655    0.961874   -0.567590
      4          1           0        1.403764   -1.002119   -1.754683
      5          6           0       -0.194348   -0.254661    0.804012
      6          1           0        0.635010   -2.246894    0.424632
      7          1           0        1.830957   -1.125679    1.186763
      8          8           0       -0.839089   -0.452148   -0.457299
      9          1           0       -0.872611   -0.451115    1.644387
     10          8           0       -2.395135    0.186574   -0.130172
     11          6           0        0.427029    1.141653    0.716179
     12          1           0        0.917502    1.555537   -1.417609
     13          1           0        2.342342    1.232826   -0.411556
     14          1           0       -0.360908    1.896315    0.599808
     15          1           0        1.028355    1.386797    1.604677
     16          1           0       -2.702295    0.080923   -1.039986
 ---------------------------------------------------------------------

 The electronic state is 2-A.
 Alpha  occ. eigenvalues --  -19.28945 -19.25425 -10.34583 -10.34433 -10.30716
 Alpha  occ. eigenvalues --  -10.30589 -10.29364  -1.12412  -1.02255  -0.91324
 Alpha  occ. eigenvalues --   -0.81578  -0.79161  -0.65591  -0.64782  -0.61447
 Alpha  occ. eigenvalues --   -0.57225  -0.54701  -0.52835  -0.48273  -0.46828
 Alpha  occ. eigenvalues --   -0.45739  -0.45178  -0.43866  -0.42480  -0.41289
 Alpha  occ. eigenvalues --   -0.39100  -0.33152  -0.26432
 Alpha virt. eigenvalues --    0.03697   0.13796   0.16488   0.18171   0.18445
 Alpha virt. eigenvalues --    0.19500   0.20560   0.21591   0.22587   0.24354
 Alpha virt. eigenvalues --    0.25664   0.26940   0.28380   0.31898   0.32672

  Beta  occ. eigenvalues --  -19.29040 -19.24228 -10.34541 -10.33620 -10.30781
  Beta  occ. eigenvalues --  -10.30646 -10.29354  -1.12084  -0.99548  -0.90626
  Beta  occ. eigenvalues --   -0.81235  -0.78346  -0.64827  -0.64162  -0.60861
  Beta  occ. eigenvalues --   -0.56225  -0.54330  -0.52106  -0.47318  -0.45744
  Beta  occ. eigenvalues --   -0.45499  -0.44320  -0.43672  -0.41470  -0.40419
  Beta  occ. eigenvalues --   -0.37929  -0.32098
  Beta virt. eigenvalues --    0.00370   0.08979   0.13876   0.16712   0.18294
  Beta virt. eigenvalues --    0.18842   0.19785   0.20700   0.21816   0.22692
  Beta virt. eigenvalues --    0.24494   0.25899   0.27221   0.28554   0.32008

 Mulliken charges and spin densities:
               1          2
     1  C   -0.135761   0.662343
     2  C    0.053606  -0.054394
     3  C    0.036255  -0.048879
     4  H    0.049868  -0.027063
     5  C    0.010306   0.026128
     6  H    0.057314   0.003632
     7  H    0.045040   0.043411
     8  O   -0.314502  -0.134246
     9  H    0.047370  -0.003346
    10  O   -0.262352   0.501052
    11  C    0.065675   0.005844
    12  H    0.053801   0.011342
    13  H    0.040633   0.026677
    14  H    0.051512  -0.001556
    15  H    0.029127  -0.000746
    16  H    0.172106  -0.010195
 Sum of Mulliken charges =  -0.00000   1.00000

 Dipole moment (field-independent basis, Debye):
    X=              2.2897    Y=             -0.1254    Z=             -0.5242  Tot=              2.3523
 Quadrupole moment (field-independent basis, Debye-Ang):
   XX=            -42.5283   YY=            -41.9105   ZZ=            -39.1250
   XY=             -0.3252   XZ=              2.5058   YZ=             -0.4865

 1\1\GINC-CSED-0027\FTS\UwB97XD\def2SVP\C5H9O2(2)\COPAN\23-May-2025\1\\
 #P wb97xd/def2svp # SCF=(xqc) # POpt=(CALCFC,TS,NOEIGEN,MAXCYCLES=60)
 # int=ultrafine\\comment:\\0,2\C\C,1,R1\C,1,R2,2,A2\H,1,R3,2,A3,3,D3,0
 \C,2,R4,1,A4,3,D4,0\H,2,R5,1,A5,5,D5,0\H,2,R6,1,A6,5,D6,0\O,5,R7,2,A7,
 1,D7,0\H,5,R8,2,A8,8,D8,0\O,8,R9,5,A9,2,D9,0\C,3,R10,1,A10,2,D10,0\H,3
 ,R11,1,A11,11,D11,0\H,3,R12,1,A12,11,D12,0\H,11,R13,3,A13,1,D13,0\H,11
 ,R14,3,A14,14,D14,0\H,10,R15,8,A15,5,D15,0\\R1=1.50342219\R2=1.5031015
 8\R3=1.09233677\R4=1.52401959\R5=1.09677328\R6=1.10595243\R7=1.4302439
 8\R8=1.09766343\R9=1.71355134\R10=1.55321612\R11=1.09922936\R12=1.1048

 Normal termination of Gaussian 16 at Fri May 23 15:22:37 2025.
